REMARK  Name = docking/ligands/IRE1_CHEMBL3356002.pdb
REMARK  6 active torsions:
REMARK  status: ('A' for Active; 'I' for Inactive)
REMARK    1  A    between atoms: C1_1  and  C2_2
REMARK    2  A    between atoms: C4_4  and  N1_5
REMARK    3  A    between atoms: C18_21  and  O1_22
REMARK    4  A    between atoms: O1_22  and  C19_23
REMARK    5  A    between atoms: C23_28  and  C24_29
REMARK    6  A    between atoms: N6_34  and  C28_35
REMARK                            x       y       z     vdW  Elec       q    Type
REMARK                         _______ _______ _______ _____ _____    ______ ____
ROOT
ATOM      1  C1  UNL     1       2.119   1.678   0.898  1.00  0.00    +0.047 C 
ATOM      2  C2  UNL     1       2.478   0.810  -0.272  1.00  0.00    -0.006 A 
ATOM      3  C3  UNL     1       3.796   0.780  -0.730  1.00  0.00    +0.031 A 
ATOM      4  C4  UNL     1       4.182  -0.039  -1.807  1.00  0.00    +0.042 A 
ATOM      5  C12 UNL     1       3.202  -0.794  -2.506  1.00  0.00    +0.007 A 
ATOM      6  C13 UNL     1       3.519  -1.574  -3.643  1.00  0.00    +0.010 A 
ATOM      7  C14 UNL     1       2.548  -2.314  -4.319  1.00  0.00    +0.001 A 
ATOM      8  C15 UNL     1       1.235  -2.300  -3.871  1.00  0.00    +0.001 A 
ATOM      9  C16 UNL     1       0.896  -1.547  -2.746  1.00  0.00    +0.012 A 
ATOM     10  C17 UNL     1       1.860  -0.786  -2.047  1.00  0.00    +0.026 A 
ATOM     11  C18 UNL     1       1.535  -0.014  -0.905  1.00  0.00    +0.141 A 
ENDROOT
BRANCH   4  12
ATOM     12  N1  UNL     1       5.532  -0.015  -2.273  1.00  0.00    -0.285 N 
ATOM     13  C5  UNL     1       6.599   0.112  -1.454  1.00  0.00    +0.198 A 
ATOM     14  N2  UNL     1       7.674   0.839  -1.642  1.00  0.00    -0.214 NA
ATOM     15  C6  UNL     1       8.445   0.646  -0.519  1.00  0.00    +0.091 A 
ATOM     16  C7  UNL     1       9.684   1.205  -0.172  1.00  0.00    +0.030 A 
ATOM     17  C8  UNL     1      10.266   0.846   1.052  1.00  0.00    +0.002 A 
ATOM     18  C9  UNL     1       9.629  -0.055   1.910  1.00  0.00    +0.002 A 
ATOM     19  C10 UNL     1       8.394  -0.626   1.581  1.00  0.00    +0.028 A 
ATOM     20  C11 UNL     1       7.837  -0.246   0.359  1.00  0.00    +0.067 A 
ATOM     21  N3  UNL     1       6.673  -0.589  -0.275  1.00  0.00    -0.326 N 
ATOM     22  H5  UNL     1       5.592   0.591  -3.089  1.00  0.00    +0.155 HD
ATOM     23  H10 UNL     1       5.967  -1.230   0.053  1.00  0.00    +0.169 HD
ENDBRANCH   4  12
BRANCH  11  24
ATOM     24  O1  UNL     1       0.232  -0.008  -0.445  1.00  0.00    -0.436 OA
BRANCH  24  25
ATOM     25  C19 UNL     1      -0.060  -0.883   0.606  1.00  0.00    +0.230 A 
ATOM     26  N4  UNL     1       0.924  -1.713   1.048  1.00  0.00    -0.220 NA
ATOM     27  C20 UNL     1       0.614  -2.572   2.037  1.00  0.00    +0.114 A 
ATOM     28  C21 UNL     1      -0.636  -2.646   2.615  1.00  0.00    +0.021 A 
ATOM     29  C22 UNL     1      -1.625  -1.782   2.153  1.00  0.00    +0.017 A 
ATOM     30  C23 UNL     1      -1.362  -0.857   1.125  1.00  0.00    +0.062 A 
BRANCH  30  31
ATOM     31  C24 UNL     1      -2.428   0.052   0.662  1.00  0.00    +0.081 A 
ATOM     32  C25 UNL     1      -2.216   1.379   0.347  1.00  0.00    +0.048 A 
ATOM     33  C26 UNL     1      -3.321   2.091  -0.045  1.00  0.00    +0.116 A 
ATOM     34  N5  UNL     1      -4.555   1.568  -0.113  1.00  0.00    -0.223 NA
ATOM     35  C27 UNL     1      -4.684   0.279   0.215  1.00  0.00    +0.216 A 
ATOM     36  N6  UNL     1      -5.925  -0.343   0.188  1.00  0.00    -0.309 N 
ATOM     37  N8  UNL     1      -3.666  -0.495   0.611  1.00  0.00    -0.214 NA
ATOM     38  H20 UNL     1      -5.803  -1.188   0.738  1.00  0.00    +0.149 HD
BRANCH  36  39
ATOM     39  C28 UNL     1      -7.056   0.502   0.567  1.00  0.00    +0.087 C 
ATOM     40  C29 UNL     1      -7.691   1.129  -0.680  1.00  0.00    +0.025 C 
ATOM     41  C30 UNL     1      -8.931   1.958  -0.325  1.00  0.00    +0.017 C 
ATOM     42  C31 UNL     1      -9.477   1.663   1.074  1.00  0.00    +0.081 C 
ATOM     43  N7  UNL     1      -9.489   0.230   1.362  1.00  0.00    -0.314 NA
ATOM     44  C32 UNL     1      -8.135  -0.351   1.292  1.00  0.00    +0.103 C 
ATOM     45  H28 UNL     1     -10.076  -0.236   0.667  1.00  0.00    +0.122 HD
ENDBRANCH  36  39
ENDBRANCH  30  31
ENDBRANCH  24  25
ENDBRANCH  11  24
TORSDOF 5
