REMARK  Name = docking/ligands/Lestaurtinib.pdb
REMARK  4 active torsions:
REMARK  status: ('A' for Active; 'I' for Inactive)
REMARK    1  A    between atoms: C1_1  and  C2_2
REMARK    2  A    between atoms: C5_6  and  O2_7
REMARK    3  A    between atoms: C5_6  and  C6_8
REMARK    4  A    between atoms: C6_8  and  O3_9
REMARK                            x       y       z     vdW  Elec       q    Type
REMARK                         _______ _______ _______ _____ _____    ______ ____
ROOT
ATOM      1  C1  UNL     1      -3.449  -0.117  -1.163  1.00  0.00    +0.070 C 
ATOM      2  C2  UNL     1      -2.081  -0.440  -0.539  1.00  0.00    +0.178 C 
ATOM      3  O1  UNL     1      -1.394  -1.022  -1.701  1.00  0.00    -0.328 OA
ATOM      4  C3  UNL     1      -0.597  -2.122  -1.254  1.00  0.00    +0.226 C 
ATOM      5  C4  UNL     1      -1.361  -2.749  -0.101  1.00  0.00    +0.096 C 
ATOM      6  C5  UNL     1      -2.067  -1.562   0.569  1.00  0.00    +0.141 C 
ATOM      7  N1  UNL     1       0.745  -1.644  -0.954  1.00  0.00    -0.311 N 
ATOM      8  C7  UNL     1       1.918  -2.357  -1.133  1.00  0.00    +0.052 A 
ATOM      9  C8  UNL     1       2.133  -3.692  -1.522  1.00  0.00    +0.026 A 
ATOM     10  C9  UNL     1       3.451  -4.148  -1.629  1.00  0.00    +0.002 A 
ATOM     11  C10 UNL     1       4.523  -3.304  -1.356  1.00  0.00    +0.001 A 
ATOM     12  C11 UNL     1       4.302  -1.977  -0.971  1.00  0.00    +0.010 A 
ATOM     13  C12 UNL     1       2.984  -1.478  -0.856  1.00  0.00    +0.008 A 
ATOM     14  C13 UNL     1       2.421  -0.212  -0.497  1.00  0.00    +0.022 A 
ATOM     15  C14 UNL     1       2.832   1.077  -0.120  1.00  0.00    +0.052 A 
ATOM     16  C15 UNL     1       1.949   2.152   0.224  1.00  0.00    -0.008 A 
ATOM     17  C16 UNL     1       0.551   1.997   0.223  1.00  0.00    +0.015 A 
ATOM     18  C17 UNL     1      -0.593   2.763   0.583  1.00  0.00    +0.008 A 
ATOM     19  C18 UNL     1      -0.752   4.069   1.094  1.00  0.00    +0.010 A 
ATOM     20  C19 UNL     1      -2.018   4.527   1.461  1.00  0.00    +0.001 A 
ATOM     21  C20 UNL     1      -3.122   3.696   1.339  1.00  0.00    +0.002 A 
ATOM     22  C21 UNL     1      -2.998   2.400   0.827  1.00  0.00    +0.026 A 
ATOM     23  C22 UNL     1      -1.731   1.943   0.422  1.00  0.00    +0.053 A 
ATOM     24  N2  UNL     1      -1.299   0.748  -0.144  1.00  0.00    -0.307 N 
ATOM     25  C23 UNL     1       0.073   0.770  -0.177  1.00  0.00    +0.077 A 
ATOM     26  C24 UNL     1       1.050  -0.381  -0.551  1.00  0.00    +0.077 A 
ATOM     27  C25 UNL     1       2.766   3.354   0.601  1.00  0.00    +0.141 C 
ATOM     28  N3  UNL     1       4.117   2.903   0.408  1.00  0.00    -0.307 N 
ATOM     29  C26 UNL     1       4.205   1.583   0.021  1.00  0.00    +0.245 C 
ATOM     30  O4  UNL     1       5.247   0.981  -0.156  1.00  0.00    -0.270 OA
ATOM     31  H21 UNL     1       4.952   3.440   0.598  1.00  0.00    +0.149 HD
ENDROOT
BRANCH   6  32
ATOM     32  O2  UNL     1      -1.272  -1.223   1.735  1.00  0.00    -0.381 OA
ATOM     33  H7  UNL     1      -1.776  -0.523   2.217  1.00  0.00    +0.210 HD
ENDBRANCH   6  32
BRANCH   6  34
ATOM     34  C6  UNL     1      -3.448  -1.969   1.120  1.00  0.00    +0.195 C 
BRANCH  34  35
ATOM     35  O3  UNL     1      -4.028  -0.867   1.827  1.00  0.00    -0.392 OA
ATOM     36  H10 UNL     1      -4.861  -1.191   2.249  1.00  0.00    +0.210 HD
ENDBRANCH  34  35
ENDBRANCH   6  34
TORSDOF 3
