REMARK  Name = docking/ligands/PERK_CHEMBL2171125.pdb
REMARK  6 active torsions:
REMARK  status: ('A' for Active; 'I' for Inactive)
REMARK    1  A    between atoms: C1_1  and  N1_2
REMARK    2  A    between atoms: C3_4  and  C4_5
REMARK    3  A    between atoms: C12_14  and  C13_16
REMARK    4  A    between atoms: C13_16  and  C14_17
REMARK    5  A    between atoms: C18_22  and  C19_23
REMARK    6  A    between atoms: C22_29  and  N3_30
REMARK                            x       y       z     vdW  Elec       q    Type
REMARK                         _______ _______ _______ _____ _____    ______ ____
ROOT
ATOM      1  C4  UNL     1       2.396   0.149  -0.348  1.00  0.00    -0.015 A 
ATOM      2  C5  UNL     1       1.311   0.997  -0.069  1.00  0.00    +0.010 A 
ATOM      3  C6  UNL     1      -0.005   0.510  -0.042  1.00  0.00    +0.024 A 
ATOM      4  C7  UNL     1      -0.231  -0.832  -0.296  1.00  0.00    +0.040 A 
ATOM      5  C8  UNL     1       0.854  -1.671  -0.579  1.00  0.00    -0.024 A 
ATOM      6  C9  UNL     1       2.163  -1.204  -0.604  1.00  0.00    +0.014 A 
ATOM      7  C10 UNL     1       0.418  -3.084  -0.801  1.00  0.00    +0.056 C 
ATOM      8  C11 UNL     1      -1.101  -2.931  -0.838  1.00  0.00    +0.118 C 
ATOM      9  N2  UNL     1      -1.424  -1.578  -0.356  1.00  0.00    -0.271 N 
ATOM     10  C12 UNL     1      -2.749  -1.251  -0.130  1.00  0.00    +0.224 C 
ATOM     11  O1  UNL     1      -3.642  -2.069  -0.379  1.00  0.00    -0.275 OA
ENDROOT
BRANCH   1  15
ATOM     12  C1  UNL     1       6.245   2.931  -1.723  1.00  0.00    +0.150 C 
ATOM     13  N1  UNL     1       5.463   1.936  -1.027  1.00  0.00    -0.334 N 
ATOM     14  C2  UNL     1       4.123   1.711  -1.208  1.00  0.00    +0.096 A 
ATOM     15  C3  UNL     1       3.750   0.672  -0.374  1.00  0.00    +0.012 A 
ATOM     16  C21 UNL     1       4.916   0.262   0.348  1.00  0.00    +0.066 A 
ATOM     17  C22 UNL     1       5.239  -0.691   1.329  1.00  0.00    +0.129 A 
ATOM     18  N4  UNL     1       6.509  -0.768   1.775  1.00  0.00    -0.220 NA
ATOM     19  C23 UNL     1       7.421   0.075   1.255  1.00  0.00    +0.225 A 
ATOM     20  N5  UNL     1       7.236   1.027   0.329  1.00  0.00    -0.218 NA
ATOM     21  C24 UNL     1       5.959   1.072  -0.087  1.00  0.00    +0.146 A 
BRANCH  17  22
ATOM     22  N3  UNL     1       4.324  -1.562   1.907  1.00  0.00    -0.343 N 
ATOM     23  H17 UNL     1       4.689  -1.928   2.779  1.00  0.00    +0.144 HD
ATOM     24  H18 UNL     1       3.373  -1.215   1.931  1.00  0.00    +0.144 HD
ENDBRANCH  17  22
ENDBRANCH   1  15
BRANCH  10  25
ATOM     25  C13 UNL     1      -3.083   0.118   0.435  1.00  0.00    +0.131 C 
BRANCH  25  26
ATOM     26  C14 UNL     1      -4.526   0.284   0.865  1.00  0.00    -0.035 A 
ATOM     27  C15 UNL     1      -4.899   0.079   2.199  1.00  0.00    +0.042 A 
ATOM     28  C16 UNL     1      -6.228   0.228   2.579  1.00  0.00    +0.124 A 
ATOM     29  F1  UNL     1      -6.571   0.042   3.860  1.00  0.00    -0.205 F 
ATOM     30  C17 UNL     1      -7.207   0.574   1.654  1.00  0.00    +0.050 A 
ATOM     31  C18 UNL     1      -6.862   0.768   0.310  1.00  0.00    +0.058 A 
ATOM     32  C20 UNL     1      -5.516   0.625  -0.073  1.00  0.00    +0.016 A 
BRANCH  31  33
ATOM     33  C19 UNL     1      -7.919   1.153  -0.693  1.00  0.00    +0.418 C 
ATOM     34  F2  UNL     1      -9.075   0.449  -0.541  1.00  0.00    -0.166 F 
ATOM     35  F3  UNL     1      -7.537   0.968  -1.987  1.00  0.00    -0.166 F 
ATOM     36  F4  UNL     1      -8.267   2.467  -0.592  1.00  0.00    -0.166 F 
ENDBRANCH  31  33
ENDBRANCH  25  26
ENDBRANCH  10  25
TORSDOF 5
