REMARK  Name = docking/ligands/PERK_CHEMBL1667910.pdb
REMARK  4 active torsions:
REMARK  status: ('A' for Active; 'I' for Inactive)
REMARK    1  A    between atoms: O1_1  and  C1_2
REMARK    2  A    between atoms: C7_8  and  N1_9
REMARK    3  A    between atoms: N1_9  and  C8_10
REMARK    4  A    between atoms: C9_11  and  C10_12
REMARK                            x       y       z     vdW  Elec       q    Type
REMARK                         _______ _______ _______ _____ _____    ______ ____
ROOT
ATOM      1  C8  UNL     1      -1.601   0.609  -0.148  1.00  0.00    +0.089 A 
ATOM      2  C9  UNL     1      -2.709   0.327  -0.933  1.00  0.00    +0.194 A 
ATOM      3  O2  UNL     1      -3.379   1.489  -1.216  1.00  0.00    -0.448 OA
ATOM      4  C14 UNL     1      -2.730   2.495  -0.573  1.00  0.00    +0.156 A 
ATOM      5  C15 UNL     1      -3.094   3.832  -0.576  1.00  0.00    +0.157 A 
ATOM      6  N4  UNL     1      -2.353   4.710   0.146  1.00  0.00    -0.260 NA
ATOM      7  C16 UNL     1      -1.295   4.245   0.852  1.00  0.00    +0.111 A 
ATOM      8  C17 UNL     1      -0.884   2.917   0.889  1.00  0.00    +0.033 A 
ATOM      9  C18 UNL     1      -1.630   2.008   0.123  1.00  0.00    +0.045 A 
ENDROOT
BRANCH   2  10
ATOM     10  C10 UNL     1      -3.259  -0.900  -1.491  1.00  0.00    +0.198 A 
ATOM     11  N2  UNL     1      -4.336  -0.806  -2.293  1.00  0.00    -0.233 NA
ATOM     12  C11 UNL     1      -4.808  -1.965  -2.783  1.00  0.00    +0.115 A 
ATOM     13  C12 UNL     1      -4.251  -3.192  -2.504  1.00  0.00    +0.039 A 
ATOM     14  C13 UNL     1      -3.156  -3.174  -1.673  1.00  0.00    +0.115 A 
ATOM     15  N3  UNL     1      -2.635  -2.049  -1.148  1.00  0.00    -0.233 NA
ENDBRANCH   2  10
BRANCH   1  16
ATOM     16  N1  UNL     1      -0.724  -0.325   0.313  1.00  0.00    -0.311 N 
ATOM     17  H6  UNL     1      -1.001  -1.301   0.165  1.00  0.00    +0.152 HD
BRANCH  16  24
ATOM     18  C1  UNL     1       4.902  -0.202   1.084  1.00  0.00    +0.125 A 
ATOM     19  C2  UNL     1       5.481  -1.113   1.966  1.00  0.00    +0.046 A 
ATOM     20  C3  UNL     1       4.684  -2.044   2.621  1.00  0.00    +0.004 A 
ATOM     21  C4  UNL     1       3.309  -2.061   2.391  1.00  0.00    +0.009 A 
ATOM     22  C5  UNL     1       2.709  -1.140   1.515  1.00  0.00    -0.013 A 
ATOM     23  C6  UNL     1       1.318  -1.165   1.303  1.00  0.00    +0.032 A 
ATOM     24  C7  UNL     1       0.681  -0.253   0.452  1.00  0.00    +0.032 A 
ATOM     25  C19 UNL     1       1.465   0.705  -0.188  1.00  0.00    +0.024 A 
ATOM     26  C20 UNL     1       2.851   0.745   0.004  1.00  0.00    +0.014 A 
ATOM     27  C21 UNL     1       3.506  -0.180   0.848  1.00  0.00    +0.024 A 
BRANCH  18  28
ATOM     28  O1  UNL     1       5.780   0.650   0.468  1.00  0.00    -0.506 OA
ATOM     29  H1  UNL     1       5.362   1.003  -0.332  1.00  0.00    +0.292 HD
ENDBRANCH  18  28
ENDBRANCH  16  24
ENDBRANCH   1  16
TORSDOF 4
