REMARK  Name = docking/ligands/PERK_CHEMBL2171126.pdb
REMARK  5 active torsions:
REMARK  status: ('A' for Active; 'I' for Inactive)
REMARK    1  A    between atoms: C1_1  and  N1_2
REMARK    2  A    between atoms: C3_4  and  C4_5
REMARK    3  A    between atoms: C12_14  and  C13_16
REMARK    4  A    between atoms: C13_16  and  C14_17
REMARK    5  A    between atoms: C21_27  and  N3_28
REMARK                            x       y       z     vdW  Elec       q    Type
REMARK                         _______ _______ _______ _____ _____    ______ ____
ROOT
ATOM      1  C4  UNL     1      -1.983   0.384   0.540  1.00  0.00    -0.015 A 
ATOM      2  C5  UNL     1      -1.073  -0.631   0.202  1.00  0.00    +0.010 A 
ATOM      3  C6  UNL     1       0.311  -0.396   0.196  1.00  0.00    +0.024 A 
ATOM      4  C7  UNL     1       0.780   0.864   0.528  1.00  0.00    +0.040 A 
ATOM      5  C8  UNL     1      -0.132   1.872   0.863  1.00  0.00    -0.024 A 
ATOM      6  C9  UNL     1      -1.505   1.651   0.881  1.00  0.00    +0.014 A 
ATOM      7  C10 UNL     1       0.556   3.152   1.213  1.00  0.00    +0.056 C 
ATOM      8  C11 UNL     1       2.010   2.821   0.884  1.00  0.00    +0.118 C 
ATOM      9  N2  UNL     1       2.089   1.381   0.589  1.00  0.00    -0.271 N 
ATOM     10  C12 UNL     1       3.335   0.816   0.390  1.00  0.00    +0.224 C 
ATOM     11  O1  UNL     1       4.351   1.519   0.455  1.00  0.00    -0.275 OA
ENDROOT
BRANCH   1  15
ATOM     12  C1  UNL     1      -6.626  -0.018   2.193  1.00  0.00    +0.150 C 
ATOM     13  N1  UNL     1      -5.489  -0.058   1.303  1.00  0.00    -0.334 N 
ATOM     14  C2  UNL     1      -4.206   0.282   1.643  1.00  0.00    +0.096 A 
ATOM     15  C3  UNL     1      -3.409   0.119   0.523  1.00  0.00    +0.012 A 
ATOM     16  C20 UNL     1      -4.253  -0.335  -0.540  1.00  0.00    +0.066 A 
ATOM     17  C21 UNL     1      -4.111  -0.664  -1.899  1.00  0.00    +0.129 A 
ATOM     18  N4  UNL     1      -5.197  -1.052  -2.594  1.00  0.00    -0.220 NA
ATOM     19  C22 UNL     1      -6.379  -1.118  -1.953  1.00  0.00    +0.225 A 
ATOM     20  N5  UNL     1      -6.644  -0.822  -0.671  1.00  0.00    -0.218 NA
ATOM     21  C23 UNL     1      -5.537  -0.435  -0.016  1.00  0.00    +0.146 A 
BRANCH  17  22
ATOM     22  N3  UNL     1      -2.916  -0.591  -2.601  1.00  0.00    -0.343 N 
ATOM     23  H16 UNL     1      -2.250   0.081  -2.241  1.00  0.00    +0.144 HD
ATOM     24  H17 UNL     1      -3.091  -0.561  -3.598  1.00  0.00    +0.144 HD
ENDBRANCH  17  22
ENDBRANCH   1  15
BRANCH  10  25
ATOM     25  C13 UNL     1       3.444  -0.676   0.127  1.00  0.00    +0.134 C 
BRANCH  25  26
ATOM     26  C14 UNL     1       4.870  -1.167   0.028  1.00  0.00    +0.002 A 
ATOM     27  C15 UNL     1       5.575  -1.585   1.167  1.00  0.00    +0.045 A 
ATOM     28  C16 UNL     1       6.905  -1.990   1.055  1.00  0.00    +0.127 A 
ATOM     29  F1  UNL     1       7.566  -2.383   2.152  1.00  0.00    -0.205 F 
ATOM     30  C17 UNL     1       7.559  -1.984  -0.171  1.00  0.00    +0.079 A 
ATOM     31  C18 UNL     1       6.865  -1.562  -1.297  1.00  0.00    +0.161 A 
ATOM     32  F2  UNL     1       7.487  -1.551  -2.485  1.00  0.00    -0.202 F 
ATOM     33  C19 UNL     1       5.536  -1.155  -1.202  1.00  0.00    +0.162 A 
ATOM     34  F3  UNL     1       4.887  -0.753  -2.301  1.00  0.00    -0.202 F 
ENDBRANCH  25  26
ENDBRANCH  10  25
TORSDOF 4
