REMARK  Name = docking/ligands/Staurosporine.pdb
REMARK  5 active torsions:
REMARK  status: ('A' for Active; 'I' for Inactive)
REMARK    1  A    between atoms: C1_1  and  N1_2
REMARK    2  A    between atoms: N1_2  and  C2_3
REMARK    3  A    between atoms: C5_7  and  C6_8
REMARK    4  A    between atoms: C7_9  and  O2_10
REMARK    5  A    between atoms: O2_10  and  C8_11
REMARK                            x       y       z     vdW  Elec       q    Type
REMARK                         _______ _______ _______ _____ _____    ______ ____
ROOT
ATOM      1  C2  UNL     1       2.585  -0.881  -0.443  1.00  0.00    +0.091 C 
ATOM      2  C3  UNL     1       2.215  -1.941   0.597  1.00  0.00    +0.076 C 
ATOM      3  C4  UNL     1       1.130  -1.515   1.576  1.00  0.00    +0.224 C 
ATOM      4  O1  UNL     1       1.294  -0.212   2.128  1.00  0.00    -0.328 OA
ATOM      5  C5  UNL     1       1.685   0.878   1.253  1.00  0.00    +0.174 C 
ATOM      6  C6  UNL     1       2.218   1.891   2.298  1.00  0.00    +0.069 C 
ATOM      7  C7  UNL     1       2.861   0.452   0.311  1.00  0.00    +0.187 C 
ATOM      8  N2  UNL     1       0.495   1.433   0.565  1.00  0.00    -0.307 N 
ATOM      9  C9  UNL     1       0.335   2.727   0.050  1.00  0.00    +0.053 A 
ATOM     10  C10 UNL     1       1.229   3.805  -0.107  1.00  0.00    +0.026 A 
ATOM     11  C11 UNL     1       0.763   5.018  -0.625  1.00  0.00    +0.002 A 
ATOM     12  C12 UNL     1      -0.563   5.171  -0.994  1.00  0.00    +0.001 A 
ATOM     13  C13 UNL     1      -1.450   4.101  -0.873  1.00  0.00    +0.010 A 
ATOM     14  C14 UNL     1      -1.004   2.863  -0.358  1.00  0.00    +0.008 A 
ATOM     15  C15 UNL     1      -1.636   1.606  -0.181  1.00  0.00    +0.015 A 
ATOM     16  C16 UNL     1      -2.903   1.056  -0.441  1.00  0.00    -0.008 A 
ATOM     17  C17 UNL     1      -3.195  -0.320  -0.199  1.00  0.00    +0.052 A 
ATOM     18  C18 UNL     1      -2.281  -1.250   0.313  1.00  0.00    +0.022 A 
ATOM     19  C19 UNL     1      -2.219  -2.641   0.636  1.00  0.00    +0.008 A 
ATOM     20  C20 UNL     1      -3.132  -3.714   0.561  1.00  0.00    +0.010 A 
ATOM     21  C21 UNL     1      -2.745  -4.997   0.961  1.00  0.00    +0.001 A 
ATOM     22  C22 UNL     1      -1.462  -5.231   1.437  1.00  0.00    +0.002 A 
ATOM     23  C23 UNL     1      -0.532  -4.193   1.527  1.00  0.00    +0.026 A 
ATOM     24  C24 UNL     1      -0.927  -2.904   1.122  1.00  0.00    +0.052 A 
ATOM     25  N3  UNL     1      -0.232  -1.706   1.103  1.00  0.00    -0.311 N 
ATOM     26  C25 UNL     1      -1.033  -0.732   0.609  1.00  0.00    +0.077 A 
ATOM     27  C26 UNL     1      -0.686   0.761   0.357  1.00  0.00    +0.077 A 
ATOM     28  C27 UNL     1      -4.590  -0.545  -0.607  1.00  0.00    +0.245 C 
ATOM     29  O3  UNL     1      -5.222  -1.581  -0.565  1.00  0.00    -0.270 OA
ATOM     30  N4  UNL     1      -5.080   0.658  -1.064  1.00  0.00    -0.307 N 
ATOM     31  C28 UNL     1      -4.119   1.723  -1.014  1.00  0.00    +0.141 C 
ATOM     32  H24 UNL     1      -6.030   0.735  -1.403  1.00  0.00    +0.149 HD
ENDROOT
BRANCH   1  34
ATOM     33  C1  UNL     1       1.440  -1.958  -2.341  1.00  0.00    +0.101 C 
ATOM     34  N1  UNL     1       1.682  -0.738  -1.590  1.00  0.00    -0.314 NA
ATOM     35  H4  UNL     1       0.794  -0.299  -1.353  1.00  0.00    +0.122 HD
ENDBRANCH   1  34
BRANCH   7  36
ATOM     36  O2  UNL     1       3.281   1.537  -0.529  1.00  0.00    -0.373 OA
ATOM     37  C8  UNL     1       4.446   1.284  -1.299  1.00  0.00    +0.194 C 
ENDBRANCH   7  36
TORSDOF 2
