MODEL 1
REMARK VINA RESULT:    -6.912      0.000      0.000
REMARK INTER + INTRA:         -10.243
REMARK INTER:                  -9.130
REMARK INTRA:                  -1.113
REMARK UNBOUND:                -1.311
REMARK  Name = docking/ligands/IRE1_CHEMBL3356002.pdb
REMARK  6 active torsions:
REMARK  status: ('A' for Active; 'I' for Inactive)
REMARK    1  A    between atoms: C1_1  and  C2_2
REMARK    2  A    between atoms: C4_4  and  N1_5
REMARK    3  A    between atoms: C18_21  and  O1_22
REMARK    4  A    between atoms: O1_22  and  C19_23
REMARK    5  A    between atoms: C23_28  and  C24_29
REMARK    6  A    between atoms: N6_34  and  C28_35
REMARK                            x       y       z     vdW  Elec       q    Type
REMARK                         _______ _______ _______ _____ _____    ______ ____
ROOT
ATOM      1  C1  UNL     1      -9.974  -6.349  -7.831  1.00  0.00    +0.047 C 
ATOM      2  C2  UNL     1      -9.095  -5.505  -8.708  1.00  0.00    -0.006 A 
ATOM      3  C3  UNL     1      -8.282  -6.118  -9.663  1.00  0.00    +0.031 A 
ATOM      4  C4  UNL     1      -7.462  -5.365 -10.523  1.00  0.00    +0.042 A 
ATOM      5  C12 UNL     1      -7.387  -3.954 -10.371  1.00  0.00    +0.007 A 
ATOM      6  C13 UNL     1      -6.523  -3.154 -11.155  1.00  0.00    +0.010 A 
ATOM      7  C14 UNL     1      -6.461  -1.769 -10.998  1.00  0.00    +0.001 A 
ATOM      8  C15 UNL     1      -7.268  -1.145 -10.057  1.00  0.00    +0.001 A 
ATOM      9  C16 UNL     1      -8.137  -1.908  -9.277  1.00  0.00    +0.012 A 
ATOM     10  C17 UNL     1      -8.215  -3.313  -9.414  1.00  0.00    +0.026 A 
ATOM     11  C18 UNL     1      -9.089  -4.104  -8.630  1.00  0.00    +0.141 A 
ENDROOT
BRANCH   4  12
ATOM     12  N1  UNL     1      -6.615  -6.028 -11.463  1.00  0.00    -0.285 N 
ATOM     13  C5  UNL     1      -5.282  -6.167 -11.293  1.00  0.00    +0.198 A 
ATOM     14  N2  UNL     1      -4.339  -6.032 -12.195  1.00  0.00    -0.214 NA
ATOM     15  C6  UNL     1      -3.159  -6.251 -11.522  1.00  0.00    +0.091 A 
ATOM     16  C7  UNL     1      -1.837  -6.201 -11.988  1.00  0.00    +0.030 A 
ATOM     17  C8  UNL     1      -0.795  -6.460 -11.086  1.00  0.00    +0.002 A 
ATOM     18  C9  UNL     1      -1.065  -6.767  -9.750  1.00  0.00    +0.002 A 
ATOM     19  C10 UNL     1      -2.378  -6.825  -9.266  1.00  0.00    +0.028 A 
ATOM     20  C11 UNL     1      -3.393  -6.557 -10.186  1.00  0.00    +0.067 A 
ATOM     21  N3  UNL     1      -4.758  -6.521 -10.074  1.00  0.00    -0.326 N 
ATOM     22  H5  UNL     1      -6.860  -5.724 -12.404  1.00  0.00    +0.155 HD
ATOM     23  H10 UNL     1      -5.306  -6.702  -9.248  1.00  0.00    +0.169 HD
ENDBRANCH   4  12
BRANCH  11  24
ATOM     24  O1  UNL     1      -9.907  -3.487  -7.702  1.00  0.00    -0.436 OA
BRANCH  24  25
ATOM     25  C19 UNL     1     -11.206  -3.186  -8.121  1.00  0.00    +0.230 A 
ATOM     26  N4  UNL     1     -11.390  -2.764  -9.402  1.00  0.00    -0.220 NA
ATOM     27  C20 UNL     1     -12.642  -2.445  -9.778  1.00  0.00    +0.114 A 
ATOM     28  C21 UNL     1     -13.732  -2.528  -8.936  1.00  0.00    +0.021 A 
ATOM     29  C22 UNL     1     -13.522  -2.969  -7.632  1.00  0.00    +0.017 A 
ATOM     30  C23 UNL     1     -12.237  -3.323  -7.181  1.00  0.00    +0.062 A 
BRANCH  30  31
ATOM     31  C24 UNL     1     -12.047  -3.796  -5.796  1.00  0.00    +0.081 A 
ATOM     32  C25 UNL     1     -11.842  -2.952  -4.723  1.00  0.00    +0.048 A 
ATOM     33  C26 UNL     1     -11.659  -3.557  -3.506  1.00  0.00    +0.116 A 
ATOM     34  N5  UNL     1     -11.655  -4.888  -3.331  1.00  0.00    -0.223 NA
ATOM     35  C27 UNL     1     -11.851  -5.640  -4.418  1.00  0.00    +0.216 A 
ATOM     36  N6  UNL     1     -11.849  -7.026  -4.335  1.00  0.00    -0.309 N 
ATOM     37  N8  UNL     1     -12.036  -5.142  -5.646  1.00  0.00    -0.214 NA
ATOM     38  H20 UNL     1     -11.726  -7.342  -5.293  1.00  0.00    +0.149 HD
BRANCH  36  39
ATOM     39  C28 UNL     1     -10.922  -7.593  -3.357  1.00  0.00    +0.087 C 
ATOM     40  C29 UNL     1     -11.368  -9.005  -2.960  1.00  0.00    +0.025 C 
ATOM     41  C30 UNL     1     -10.372  -9.660  -1.995  1.00  0.00    +0.017 C 
ATOM     42  C31 UNL     1      -9.013  -8.958  -1.959  1.00  0.00    +0.081 C 
ATOM     43  N7  UNL     1      -8.552  -8.595  -3.298  1.00  0.00    -0.314 NA
ATOM     44  C32 UNL     1      -9.495  -7.682  -3.969  1.00  0.00    +0.103 C 
ATOM     45  H28 UNL     1      -8.476  -9.448  -3.857  1.00  0.00    +0.122 HD
ENDBRANCH  36  39
ENDBRANCH  30  31
ENDBRANCH  24  25
ENDBRANCH  11  24
TORSDOF 5
ENDMDL
MODEL 2
REMARK VINA RESULT:    -6.686      4.203      6.864
REMARK INTER + INTRA:          -9.951
REMARK INTER:                  -8.667
REMARK INTRA:                  -1.284
REMARK UNBOUND:                -1.311
REMARK  Name = docking/ligands/IRE1_CHEMBL3356002.pdb
REMARK  6 active torsions:
REMARK  status: ('A' for Active; 'I' for Inactive)
REMARK    1  A    between atoms: C1_1  and  C2_2
REMARK    2  A    between atoms: C4_4  and  N1_5
REMARK    3  A    between atoms: C18_21  and  O1_22
REMARK    4  A    between atoms: O1_22  and  C19_23
REMARK    5  A    between atoms: C23_28  and  C24_29
REMARK    6  A    between atoms: N6_34  and  C28_35
REMARK                            x       y       z     vdW  Elec       q    Type
REMARK                         _______ _______ _______ _____ _____    ______ ____
ROOT
ATOM      1  C1  UNL     1      -8.823  -7.028  -8.209  1.00  0.00    +0.047 C 
ATOM      2  C2  UNL     1      -8.436  -7.715  -6.932  1.00  0.00    -0.006 A 
ATOM      3  C3  UNL     1      -7.334  -8.570  -6.916  1.00  0.00    +0.031 A 
ATOM      4  C4  UNL     1      -6.920  -9.215  -5.735  1.00  0.00    +0.042 A 
ATOM      5  C12 UNL     1      -7.683  -9.065  -4.545  1.00  0.00    +0.007 A 
ATOM      6  C13 UNL     1      -7.359  -9.749  -3.350  1.00  0.00    +0.010 A 
ATOM      7  C14 UNL     1      -8.114  -9.591  -2.187  1.00  0.00    +0.001 A 
ATOM      8  C15 UNL     1      -9.208  -8.738  -2.186  1.00  0.00    +0.001 A 
ATOM      9  C16 UNL     1      -9.544  -8.043  -3.348  1.00  0.00    +0.012 A 
ATOM     10  C17 UNL     1      -8.798  -8.189  -4.540  1.00  0.00    +0.026 A 
ATOM     11  C18 UNL     1      -9.125  -7.494  -5.730  1.00  0.00    +0.141 A 
ENDROOT
BRANCH   4  12
ATOM     12  N1  UNL     1      -5.811 -10.114  -5.765  1.00  0.00    -0.285 N 
ATOM     13  C5  UNL     1      -4.528  -9.716  -5.620  1.00  0.00    +0.198 A 
ATOM     14  N2  UNL     1      -3.478 -10.129  -6.289  1.00  0.00    -0.214 NA
ATOM     15  C6  UNL     1      -2.419  -9.409  -5.786  1.00  0.00    +0.091 A 
ATOM     16  C7  UNL     1      -1.066  -9.422  -6.156  1.00  0.00    +0.030 A 
ATOM     17  C8  UNL     1      -0.175  -8.574  -5.484  1.00  0.00    +0.002 A 
ATOM     18  C9  UNL     1      -0.622  -7.734  -4.460  1.00  0.00    +0.002 A 
ATOM     19  C10 UNL     1      -1.967  -7.708  -4.074  1.00  0.00    +0.028 A 
ATOM     20  C11 UNL     1      -2.831  -8.559  -4.764  1.00  0.00    +0.067 A 
ATOM     21  N3  UNL     1      -4.176  -8.794  -4.664  1.00  0.00    -0.326 N 
ATOM     22  H5  UNL     1      -5.932 -10.768  -6.535  1.00  0.00    +0.155 HD
ATOM     23  H10 UNL     1      -4.823  -8.366  -4.019  1.00  0.00    +0.169 HD
ENDBRANCH   4  12
BRANCH  11  24
ATOM     24  O1  UNL     1     -10.205  -6.632  -5.731  1.00  0.00    -0.436 OA
BRANCH  24  25
ATOM     25  C19 UNL     1     -11.470  -7.220  -5.648  1.00  0.00    +0.230 A 
ATOM     26  N4  UNL     1     -11.705  -8.353  -6.365  1.00  0.00    -0.220 NA
ATOM     27  C20 UNL     1     -12.939  -8.886  -6.299  1.00  0.00    +0.114 A 
ATOM     28  C21 UNL     1     -13.961  -8.344  -5.548  1.00  0.00    +0.021 A 
ATOM     29  C22 UNL     1     -13.697  -7.190  -4.816  1.00  0.00    +0.017 A 
ATOM     30  C23 UNL     1     -12.425  -6.588  -4.838  1.00  0.00    +0.062 A 
BRANCH  30  31
ATOM     31  C24 UNL     1     -12.172  -5.370  -4.045  1.00  0.00    +0.081 A 
ATOM     32  C25 UNL     1     -11.665  -5.386  -2.762  1.00  0.00    +0.048 A 
ATOM     33  C26 UNL     1     -11.513  -4.165  -2.156  1.00  0.00    +0.116 A 
ATOM     34  N5  UNL     1     -11.844  -3.002  -2.738  1.00  0.00    -0.223 NA
ATOM     35  C27 UNL     1     -12.337  -3.066  -3.979  1.00  0.00    +0.216 A 
ATOM     36  N6  UNL     1     -12.721  -1.915  -4.654  1.00  0.00    -0.309 N 
ATOM     37  N8  UNL     1     -12.524  -4.209  -4.649  1.00  0.00    -0.214 NA
ATOM     38  H20 UNL     1     -13.308  -2.244  -5.415  1.00  0.00    +0.149 HD
BRANCH  36  39
ATOM     39  C28 UNL     1     -13.298  -0.863  -3.818  1.00  0.00    +0.087 C 
ATOM     40  C29 UNL     1     -12.943   0.518  -4.384  1.00  0.00    +0.025 C 
ATOM     41  C30 UNL     1     -13.600   1.643  -3.576  1.00  0.00    +0.017 C 
ATOM     42  C31 UNL     1     -14.739   1.158  -2.676  1.00  0.00    +0.081 C 
ATOM     43  N7  UNL     1     -15.599   0.194  -3.359  1.00  0.00    -0.314 NA
ATOM     44  C32 UNL     1     -14.846  -0.999  -3.789  1.00  0.00    +0.103 C 
ATOM     45  H28 UNL     1     -15.995   0.642  -4.188  1.00  0.00    +0.122 HD
ENDBRANCH  36  39
ENDBRANCH  30  31
ENDBRANCH  24  25
ENDBRANCH  11  24
TORSDOF 5
ENDMDL
MODEL 3
REMARK VINA RESULT:    -6.606      3.642      9.315
REMARK INTER + INTRA:          -9.847
REMARK INTER:                  -9.061
REMARK INTRA:                  -0.786
REMARK UNBOUND:                -1.311
REMARK  Name = docking/ligands/IRE1_CHEMBL3356002.pdb
REMARK  6 active torsions:
REMARK  status: ('A' for Active; 'I' for Inactive)
REMARK    1  A    between atoms: C1_1  and  C2_2
REMARK    2  A    between atoms: C4_4  and  N1_5
REMARK    3  A    between atoms: C18_21  and  O1_22
REMARK    4  A    between atoms: O1_22  and  C19_23
REMARK    5  A    between atoms: C23_28  and  C24_29
REMARK    6  A    between atoms: N6_34  and  C28_35
REMARK                            x       y       z     vdW  Elec       q    Type
REMARK                         _______ _______ _______ _____ _____    ______ ____
ROOT
ATOM      1  C1  UNL     1     -11.860  -4.120  -1.812  1.00  0.00    +0.047 C 
ATOM      2  C2  UNL     1     -11.817  -4.263  -3.305  1.00  0.00    -0.006 A 
ATOM      3  C3  UNL     1     -12.293  -3.228  -4.111  1.00  0.00    +0.031 A 
ATOM      4  C4  UNL     1     -12.249  -3.308  -5.515  1.00  0.00    +0.042 A 
ATOM      5  C12 UNL     1     -11.788  -4.499  -6.139  1.00  0.00    +0.007 A 
ATOM      6  C13 UNL     1     -11.793  -4.666  -7.544  1.00  0.00    +0.010 A 
ATOM      7  C14 UNL     1     -11.334  -5.838  -8.145  1.00  0.00    +0.001 A 
ATOM      8  C15 UNL     1     -10.851  -6.873  -7.358  1.00  0.00    +0.001 A 
ATOM      9  C16 UNL     1     -10.825  -6.732  -5.970  1.00  0.00    +0.012 A 
ATOM     10  C17 UNL     1     -11.288  -5.556  -5.337  1.00  0.00    +0.026 A 
ATOM     11  C18 UNL     1     -11.272  -5.395  -3.930  1.00  0.00    +0.141 A 
ENDROOT
BRANCH   4  12
ATOM     12  N1  UNL     1     -12.780  -2.246  -6.308  1.00  0.00    -0.285 N 
ATOM     13  C5  UNL     1     -13.403  -1.167  -5.784  1.00  0.00    +0.198 A 
ATOM     14  N2  UNL     1     -14.486  -0.573  -6.224  1.00  0.00    -0.214 NA
ATOM     15  C6  UNL     1     -14.725   0.452  -5.338  1.00  0.00    +0.091 A 
ATOM     16  C7  UNL     1     -15.769   1.388  -5.305  1.00  0.00    +0.030 A 
ATOM     17  C8  UNL     1     -15.789   2.340  -4.277  1.00  0.00    +0.002 A 
ATOM     18  C9  UNL     1     -14.786   2.362  -3.303  1.00  0.00    +0.002 A 
ATOM     19  C10 UNL     1     -13.734   1.439  -3.319  1.00  0.00    +0.028 A 
ATOM     20  C11 UNL     1     -13.744   0.500  -4.352  1.00  0.00    +0.067 A 
ATOM     21  N3  UNL     1     -12.901  -0.529  -4.677  1.00  0.00    -0.326 N 
ATOM     22  H5  UNL     1     -13.283  -2.640  -7.100  1.00  0.00    +0.155 HD
ATOM     23  H10 UNL     1     -12.059  -0.802  -4.193  1.00  0.00    +0.169 HD
ENDBRANCH   4  12
BRANCH  11  24
ATOM     24  O1  UNL     1     -10.778  -6.416  -3.141  1.00  0.00    -0.436 OA
BRANCH  24  25
ATOM     25  C19 UNL     1     -11.619  -7.517  -2.951  1.00  0.00    +0.230 A 
ATOM     26  N4  UNL     1     -12.963  -7.305  -2.916  1.00  0.00    -0.220 NA
ATOM     27  C20 UNL     1     -13.754  -8.372  -2.698  1.00  0.00    +0.114 A 
ATOM     28  C21 UNL     1     -13.272  -9.651  -2.513  1.00  0.00    +0.021 A 
ATOM     29  C22 UNL     1     -11.894  -9.846  -2.561  1.00  0.00    +0.017 A 
ATOM     30  C23 UNL     1     -11.014  -8.771  -2.791  1.00  0.00    +0.062 A 
BRANCH  30  31
ATOM     31  C24 UNL     1      -9.559  -9.010  -2.844  1.00  0.00    +0.081 A 
ATOM     32  C25 UNL     1      -8.745  -9.019  -1.729  1.00  0.00    +0.048 A 
ATOM     33  C26 UNL     1      -7.410  -9.233  -1.957  1.00  0.00    +0.116 A 
ATOM     34  N5  UNL     1      -6.885  -9.409  -3.180  1.00  0.00    -0.223 NA
ATOM     35  C27 UNL     1      -7.733  -9.380  -4.212  1.00  0.00    +0.216 A 
ATOM     36  N6  UNL     1      -7.278  -9.539  -5.514  1.00  0.00    -0.309 N 
ATOM     37  N8  UNL     1      -9.050  -9.175  -4.089  1.00  0.00    -0.214 NA
ATOM     38  H20 UNL     1      -8.035  -9.195  -6.097  1.00  0.00    +0.149 HD
BRANCH  36  39
ATOM     39  C28 UNL     1      -5.959  -8.971  -5.789  1.00  0.00    +0.087 C 
ATOM     40  C29 UNL     1      -5.018 -10.054  -6.330  1.00  0.00    +0.025 C 
ATOM     41  C30 UNL     1      -3.649  -9.475  -6.705  1.00  0.00    +0.017 C 
ATOM     42  C31 UNL     1      -3.650  -7.950  -6.834  1.00  0.00    +0.081 C 
ATOM     43  N7  UNL     1      -4.832  -7.466  -7.546  1.00  0.00    -0.314 NA
ATOM     44  C32 UNL     1      -6.078  -7.845  -6.854  1.00  0.00    +0.103 C 
ATOM     45  H28 UNL     1      -4.842  -7.883  -8.480  1.00  0.00    +0.122 HD
ENDBRANCH  36  39
ENDBRANCH  30  31
ENDBRANCH  24  25
ENDBRANCH  11  24
TORSDOF 5
ENDMDL
MODEL 4
REMARK VINA RESULT:    -6.150      3.451      5.992
REMARK INTER + INTRA:          -9.258
REMARK INTER:                  -8.460
REMARK INTRA:                  -0.798
REMARK UNBOUND:                -1.311
REMARK  Name = docking/ligands/IRE1_CHEMBL3356002.pdb
REMARK  6 active torsions:
REMARK  status: ('A' for Active; 'I' for Inactive)
REMARK    1  A    between atoms: C1_1  and  C2_2
REMARK    2  A    between atoms: C4_4  and  N1_5
REMARK    3  A    between atoms: C18_21  and  O1_22
REMARK    4  A    between atoms: O1_22  and  C19_23
REMARK    5  A    between atoms: C23_28  and  C24_29
REMARK    6  A    between atoms: N6_34  and  C28_35
REMARK                            x       y       z     vdW  Elec       q    Type
REMARK                         _______ _______ _______ _____ _____    ______ ____
ROOT
ATOM      1  C1  UNL     1      -7.445  -7.505  -7.176  1.00  0.00    +0.047 C 
ATOM      2  C2  UNL     1      -6.045  -7.317  -7.681  1.00  0.00    -0.006 A 
ATOM      3  C3  UNL     1      -5.010  -8.083  -7.144  1.00  0.00    +0.031 A 
ATOM      4  C4  UNL     1      -3.686  -7.959  -7.606  1.00  0.00    +0.042 A 
ATOM      5  C12 UNL     1      -3.369  -6.976  -8.581  1.00  0.00    +0.007 A 
ATOM      6  C13 UNL     1      -2.045  -6.753  -9.026  1.00  0.00    +0.010 A 
ATOM      7  C14 UNL     1      -1.746  -5.787  -9.988  1.00  0.00    +0.001 A 
ATOM      8  C15 UNL     1      -2.766  -5.023 -10.536  1.00  0.00    +0.001 A 
ATOM      9  C16 UNL     1      -4.083  -5.228 -10.123  1.00  0.00    +0.012 A 
ATOM     10  C17 UNL     1      -4.410  -6.197  -9.148  1.00  0.00    +0.026 A 
ATOM     11  C18 UNL     1      -5.740  -6.418  -8.714  1.00  0.00    +0.141 A 
ENDROOT
BRANCH   4  12
ATOM     12  N1  UNL     1      -2.646  -8.732  -7.006  1.00  0.00    -0.285 N 
ATOM     13  C5  UNL     1      -2.394  -8.737  -5.678  1.00  0.00    +0.198 A 
ATOM     14  N2  UNL     1      -1.227  -8.716  -5.082  1.00  0.00    -0.214 NA
ATOM     15  C6  UNL     1      -1.506  -8.710  -3.735  1.00  0.00    +0.091 A 
ATOM     16  C7  UNL     1      -0.636  -8.658  -2.636  1.00  0.00    +0.030 A 
ATOM     17  C8  UNL     1      -1.180  -8.656  -1.344  1.00  0.00    +0.002 A 
ATOM     18  C9  UNL     1      -2.564  -8.711  -1.151  1.00  0.00    +0.002 A 
ATOM     19  C10 UNL     1      -3.449  -8.766  -2.234  1.00  0.00    +0.028 A 
ATOM     20  C11 UNL     1      -2.878  -8.762  -3.507  1.00  0.00    +0.067 A 
ATOM     21  N3  UNL     1      -3.418  -8.803  -4.765  1.00  0.00    -0.326 N 
ATOM     22  H5  UNL     1      -1.799  -8.640  -7.563  1.00  0.00    +0.155 HD
ATOM     23  H10 UNL     1      -4.396  -8.855  -5.006  1.00  0.00    +0.169 HD
ENDBRANCH   4  12
BRANCH  11  24
ATOM     24  O1  UNL     1      -6.762  -5.670  -9.268  1.00  0.00    -0.436 OA
BRANCH  24  25
ATOM     25  C19 UNL     1      -7.584  -6.327 -10.189  1.00  0.00    +0.230 A 
ATOM     26  N4  UNL     1      -7.019  -7.248 -11.017  1.00  0.00    -0.220 NA
ATOM     27  C20 UNL     1      -7.819  -7.845 -11.920  1.00  0.00    +0.114 A 
ATOM     28  C21 UNL     1      -9.165  -7.570 -12.041  1.00  0.00    +0.021 A 
ATOM     29  C22 UNL     1      -9.724  -6.631 -11.179  1.00  0.00    +0.017 A 
ATOM     30  C23 UNL     1      -8.941  -5.977 -10.209  1.00  0.00    +0.062 A 
BRANCH  30  31
ATOM     31  C24 UNL     1      -9.562  -4.992  -9.303  1.00  0.00    +0.081 A 
ATOM     32  C25 UNL     1      -9.371  -3.629  -9.409  1.00  0.00    +0.048 A 
ATOM     33  C26 UNL     1     -10.004  -2.855  -8.471  1.00  0.00    +0.116 A 
ATOM     34  N5  UNL     1     -10.758  -3.356  -7.481  1.00  0.00    -0.223 NA
ATOM     35  C27 UNL     1     -10.891  -4.685  -7.437  1.00  0.00    +0.216 A 
ATOM     36  N6  UNL     1     -11.641  -5.294  -6.439  1.00  0.00    -0.309 N 
ATOM     37  N8  UNL     1     -10.311  -5.522  -8.306  1.00  0.00    -0.214 NA
ATOM     38  H20 UNL     1     -11.351  -6.267  -6.455  1.00  0.00    +0.149 HD
BRANCH  36  39
ATOM     39  C28 UNL     1     -11.593  -4.640  -5.133  1.00  0.00    +0.087 C 
ATOM     40  C29 UNL     1     -12.895  -3.872  -4.877  1.00  0.00    +0.025 C 
ATOM     41  C30 UNL     1     -12.911  -3.239  -3.480  1.00  0.00    +0.017 C 
ATOM     42  C31 UNL     1     -11.853  -3.821  -2.540  1.00  0.00    +0.081 C 
ATOM     43  N7  UNL     1     -11.772  -5.276  -2.646  1.00  0.00    -0.314 NA
ATOM     44  C32 UNL     1     -11.421  -5.704  -4.013  1.00  0.00    +0.103 C 
ATOM     45  H28 UNL     1     -12.685  -5.671  -2.410  1.00  0.00    +0.122 HD
ENDBRANCH  36  39
ENDBRANCH  30  31
ENDBRANCH  24  25
ENDBRANCH  11  24
TORSDOF 5
ENDMDL
MODEL 5
REMARK VINA RESULT:    -6.127      3.043      9.719
REMARK INTER + INTRA:          -9.229
REMARK INTER:                  -8.454
REMARK INTRA:                  -0.775
REMARK UNBOUND:                -1.311
REMARK  Name = docking/ligands/IRE1_CHEMBL3356002.pdb
REMARK  6 active torsions:
REMARK  status: ('A' for Active; 'I' for Inactive)
REMARK    1  A    between atoms: C1_1  and  C2_2
REMARK    2  A    between atoms: C4_4  and  N1_5
REMARK    3  A    between atoms: C18_21  and  O1_22
REMARK    4  A    between atoms: O1_22  and  C19_23
REMARK    5  A    between atoms: C23_28  and  C24_29
REMARK    6  A    between atoms: N6_34  and  C28_35
REMARK                            x       y       z     vdW  Elec       q    Type
REMARK                         _______ _______ _______ _____ _____    ______ ____
ROOT
ATOM      1  C1  UNL     1     -11.267  -3.042  -8.606  1.00  0.00    +0.047 C 
ATOM      2  C2  UNL     1     -11.595  -3.554  -7.235  1.00  0.00    -0.006 A 
ATOM      3  C3  UNL     1     -12.463  -2.829  -6.416  1.00  0.00    +0.031 A 
ATOM      4  C4  UNL     1     -12.818  -3.286  -5.134  1.00  0.00    +0.042 A 
ATOM      5  C12 UNL     1     -12.222  -4.467  -4.615  1.00  0.00    +0.007 A 
ATOM      6  C13 UNL     1     -12.483  -4.931  -3.304  1.00  0.00    +0.010 A 
ATOM      7  C14 UNL     1     -11.894  -6.094  -2.807  1.00  0.00    +0.001 A 
ATOM      8  C15 UNL     1     -11.035  -6.830  -3.611  1.00  0.00    +0.001 A 
ATOM      9  C16 UNL     1     -10.768  -6.401  -4.912  1.00  0.00    +0.012 A 
ATOM     10  C17 UNL     1     -11.348  -5.224  -5.437  1.00  0.00    +0.026 A 
ATOM     11  C18 UNL     1     -11.088  -4.771  -6.753  1.00  0.00    +0.141 A 
ENDROOT
BRANCH   4  12
ATOM     12  N1  UNL     1     -13.679  -2.498  -4.310  1.00  0.00    -0.285 N 
ATOM     13  C5  UNL     1     -13.715  -1.148  -4.349  1.00  0.00    +0.198 A 
ATOM     14  N2  UNL     1     -13.794  -0.316  -3.339  1.00  0.00    -0.214 NA
ATOM     15  C6  UNL     1     -13.777   0.940  -3.899  1.00  0.00    +0.091 A 
ATOM     16  C7  UNL     1     -13.805   2.200  -3.283  1.00  0.00    +0.030 A 
ATOM     17  C8  UNL     1     -13.769   3.346  -4.090  1.00  0.00    +0.002 A 
ATOM     18  C9  UNL     1     -13.712   3.239  -5.482  1.00  0.00    +0.002 A 
ATOM     19  C10 UNL     1     -13.686   1.991  -6.117  1.00  0.00    +0.028 A 
ATOM     20  C11 UNL     1     -13.718   0.869  -5.287  1.00  0.00    +0.067 A 
ATOM     21  N3  UNL     1     -13.704  -0.475  -5.547  1.00  0.00    -0.326 N 
ATOM     22  H5  UNL     1     -13.651  -2.860  -3.358  1.00  0.00    +0.155 HD
ATOM     23  H10 UNL     1     -13.675  -0.920  -6.451  1.00  0.00    +0.169 HD
ENDBRANCH   4  12
BRANCH  11  24
ATOM     24  O1  UNL     1     -10.246  -5.507  -7.564  1.00  0.00    -0.436 OA
BRANCH  24  25
ATOM     25  C19 UNL     1     -10.799  -6.639  -8.170  1.00  0.00    +0.230 A 
ATOM     26  N4  UNL     1     -12.127  -6.629  -8.467  1.00  0.00    -0.220 NA
ATOM     27  C20 UNL     1     -12.649  -7.740  -9.019  1.00  0.00    +0.114 A 
ATOM     28  C21 UNL     1     -11.909  -8.871  -9.295  1.00  0.00    +0.021 A 
ATOM     29  C22 UNL     1     -10.550  -8.856  -8.991  1.00  0.00    +0.017 A 
ATOM     30  C23 UNL     1      -9.944  -7.722  -8.417  1.00  0.00    +0.062 A 
BRANCH  30  31
ATOM     31  C24 UNL     1      -8.500  -7.733  -8.114  1.00  0.00    +0.081 A 
ATOM     32  C25 UNL     1      -7.988  -7.923  -6.846  1.00  0.00    +0.048 A 
ATOM     33  C26 UNL     1      -6.622  -7.880  -6.734  1.00  0.00    +0.116 A 
ATOM     34  N5  UNL     1      -5.799  -7.653  -7.769  1.00  0.00    -0.223 NA
ATOM     35  C27 UNL     1      -6.368  -7.471  -8.965  1.00  0.00    +0.216 A 
ATOM     36  N6  UNL     1      -5.596  -7.215 -10.090  1.00  0.00    -0.309 N 
ATOM     37  N8  UNL     1      -7.690  -7.492  -9.172  1.00  0.00    -0.214 NA
ATOM     38  H20 UNL     1      -6.248  -6.838 -10.771  1.00  0.00    +0.149 HD
BRANCH  36  39
ATOM     39  C28 UNL     1      -4.394  -6.417  -9.856  1.00  0.00    +0.087 C 
ATOM     40  C29 UNL     1      -3.141  -7.230 -10.205  1.00  0.00    +0.025 C 
ATOM     41  C30 UNL     1      -1.865  -6.395 -10.047  1.00  0.00    +0.017 C 
ATOM     42  C31 UNL     1      -2.131  -4.890  -9.972  1.00  0.00    +0.081 C 
ATOM     43  N7  UNL     1      -3.127  -4.464 -10.954  1.00  0.00    -0.314 NA
ATOM     44  C32 UNL     1      -4.419  -5.145 -10.750  1.00  0.00    +0.103 C 
ATOM     45  H28 UNL     1      -2.783  -4.699 -11.888  1.00  0.00    +0.122 HD
ENDBRANCH  36  39
ENDBRANCH  30  31
ENDBRANCH  24  25
ENDBRANCH  11  24
TORSDOF 5
ENDMDL
MODEL 6
REMARK VINA RESULT:    -5.884      3.361      9.893
REMARK INTER + INTRA:          -8.915
REMARK INTER:                  -7.676
REMARK INTRA:                  -1.238
REMARK UNBOUND:                -1.311
REMARK  Name = docking/ligands/IRE1_CHEMBL3356002.pdb
REMARK  6 active torsions:
REMARK  status: ('A' for Active; 'I' for Inactive)
REMARK    1  A    between atoms: C1_1  and  C2_2
REMARK    2  A    between atoms: C4_4  and  N1_5
REMARK    3  A    between atoms: C18_21  and  O1_22
REMARK    4  A    between atoms: O1_22  and  C19_23
REMARK    5  A    between atoms: C23_28  and  C24_29
REMARK    6  A    between atoms: N6_34  and  C28_35
REMARK                            x       y       z     vdW  Elec       q    Type
REMARK                         _______ _______ _______ _____ _____    ______ ____
ROOT
ATOM      1  C1  UNL     1     -10.935  -4.132  -1.877  1.00  0.00    +0.047 C 
ATOM      2  C2  UNL     1     -11.903  -3.989  -3.014  1.00  0.00    -0.006 A 
ATOM      3  C3  UNL     1     -12.893  -3.007  -2.957  1.00  0.00    +0.031 A 
ATOM      4  C4  UNL     1     -13.806  -2.820  -4.012  1.00  0.00    +0.042 A 
ATOM      5  C12 UNL     1     -13.782  -3.698  -5.129  1.00  0.00    +0.007 A 
ATOM      6  C13 UNL     1     -14.724  -3.607  -6.181  1.00  0.00    +0.010 A 
ATOM      7  C14 UNL     1     -14.688  -4.473  -7.275  1.00  0.00    +0.001 A 
ATOM      8  C15 UNL     1     -13.705  -5.450  -7.349  1.00  0.00    +0.001 A 
ATOM      9  C16 UNL     1     -12.758  -5.556  -6.329  1.00  0.00    +0.012 A 
ATOM     10  C17 UNL     1     -12.775  -4.694  -5.210  1.00  0.00    +0.026 A 
ATOM     11  C18 UNL     1     -11.824  -4.788  -4.165  1.00  0.00    +0.141 A 
ENDROOT
BRANCH   4  12
ATOM     12  N1  UNL     1     -14.830  -1.831  -3.902  1.00  0.00    -0.285 N 
ATOM     13  C5  UNL     1     -14.617  -0.514  -4.117  1.00  0.00    +0.198 A 
ATOM     14  N2  UNL     1     -15.085   0.498  -3.426  1.00  0.00    -0.214 NA
ATOM     15  C6  UNL     1     -14.566   1.621  -4.029  1.00  0.00    +0.091 A 
ATOM     16  C7  UNL     1     -14.710   2.974  -3.686  1.00  0.00    +0.030 A 
ATOM     17  C8  UNL     1     -14.062   3.940  -4.469  1.00  0.00    +0.002 A 
ATOM     18  C9  UNL     1     -13.291   3.566  -5.573  1.00  0.00    +0.002 A 
ATOM     19  C10 UNL     1     -13.136   2.222  -5.933  1.00  0.00    +0.028 A 
ATOM     20  C11 UNL     1     -13.788   1.283  -5.133  1.00  0.00    +0.067 A 
ATOM     21  N3  UNL     1     -13.860  -0.083  -5.179  1.00  0.00    -0.326 N 
ATOM     22  H5  UNL     1     -15.374  -2.006  -3.060  1.00  0.00    +0.155 HD
ATOM     23  H10 UNL     1     -13.427  -0.693  -5.855  1.00  0.00    +0.169 HD
ENDBRANCH   4  12
BRANCH  11  24
ATOM     24  O1  UNL     1     -10.834  -5.748  -4.240  1.00  0.00    -0.436 OA
BRANCH  24  25
ATOM     25  C19 UNL     1     -11.236  -7.073  -4.044  1.00  0.00    +0.230 A 
ATOM     26  N4  UNL     1     -12.222  -7.321  -3.138  1.00  0.00    -0.220 NA
ATOM     27  C20 UNL     1     -12.572  -8.606  -2.938  1.00  0.00    +0.114 A 
ATOM     28  C21 UNL     1     -11.987  -9.665  -3.601  1.00  0.00    +0.021 A 
ATOM     29  C22 UNL     1     -10.987  -9.387  -4.529  1.00  0.00    +0.017 A 
ATOM     30  C23 UNL     1     -10.580  -8.064  -4.787  1.00  0.00    +0.062 A 
BRANCH  30  31
ATOM     31  C24 UNL     1      -9.523  -7.800  -5.782  1.00  0.00    +0.081 A 
ATOM     32  C25 UNL     1      -8.243  -8.307  -5.689  1.00  0.00    +0.048 A 
ATOM     33  C26 UNL     1      -7.375  -7.945  -6.688  1.00  0.00    +0.116 A 
ATOM     34  N5  UNL     1      -7.709  -7.132  -7.702  1.00  0.00    -0.223 NA
ATOM     35  C27 UNL     1      -8.964  -6.674  -7.722  1.00  0.00    +0.216 A 
ATOM     36  N6  UNL     1      -9.395  -5.816  -8.725  1.00  0.00    -0.309 N 
ATOM     37  N8  UNL     1      -9.881  -6.970  -6.791  1.00  0.00    -0.214 NA
ATOM     38  H20 UNL     1     -10.248  -5.401  -8.362  1.00  0.00    +0.149 HD
BRANCH  36  39
ATOM     39  C28 UNL     1      -8.391  -4.874  -9.216  1.00  0.00    +0.087 C 
ATOM     40  C29 UNL     1      -8.440  -4.797 -10.746  1.00  0.00    +0.025 C 
ATOM     41  C30 UNL     1      -7.453  -3.756 -11.290  1.00  0.00    +0.017 C 
ATOM     42  C31 UNL     1      -6.952  -2.781 -10.222  1.00  0.00    +0.081 C 
ATOM     43  N7  UNL     1      -8.033  -2.329  -9.349  1.00  0.00    -0.314 NA
ATOM     44  C32 UNL     1      -8.671  -3.456  -8.643  1.00  0.00    +0.103 C 
ATOM     45  H28 UNL     1      -8.742  -1.865  -9.922  1.00  0.00    +0.122 HD
ENDBRANCH  36  39
ENDBRANCH  30  31
ENDBRANCH  24  25
ENDBRANCH  11  24
TORSDOF 5
ENDMDL
MODEL 7
REMARK VINA RESULT:    -5.835      2.504      9.296
REMARK INTER + INTRA:          -8.851
REMARK INTER:                  -7.552
REMARK INTRA:                  -1.299
REMARK UNBOUND:                -1.311
REMARK  Name = docking/ligands/IRE1_CHEMBL3356002.pdb
REMARK  6 active torsions:
REMARK  status: ('A' for Active; 'I' for Inactive)
REMARK    1  A    between atoms: C1_1  and  C2_2
REMARK    2  A    between atoms: C4_4  and  N1_5
REMARK    3  A    between atoms: C18_21  and  O1_22
REMARK    4  A    between atoms: O1_22  and  C19_23
REMARK    5  A    between atoms: C23_28  and  C24_29
REMARK    6  A    between atoms: N6_34  and  C28_35
REMARK                            x       y       z     vdW  Elec       q    Type
REMARK                         _______ _______ _______ _____ _____    ______ ____
ROOT
ATOM      1  C1  UNL     1      -6.026  -6.727  -8.203  1.00  0.00    +0.047 C 
ATOM      2  C2  UNL     1      -7.497  -6.800  -8.489  1.00  0.00    -0.006 A 
ATOM      3  C3  UNL     1      -8.390  -7.062  -7.449  1.00  0.00    +0.031 A 
ATOM      4  C4  UNL     1      -9.779  -7.113  -7.667  1.00  0.00    +0.042 A 
ATOM      5  C12 UNL     1     -10.292  -6.979  -8.985  1.00  0.00    +0.007 A 
ATOM      6  C13 UNL     1     -11.671  -7.099  -9.275  1.00  0.00    +0.010 A 
ATOM      7  C14 UNL     1     -12.163  -6.961 -10.573  1.00  0.00    +0.001 A 
ATOM      8  C15 UNL     1     -11.289  -6.693 -11.617  1.00  0.00    +0.001 A 
ATOM      9  C16 UNL     1      -9.924  -6.560 -11.358  1.00  0.00    +0.012 A 
ATOM     10  C17 UNL     1      -9.401  -6.699 -10.053  1.00  0.00    +0.026 A 
ATOM     11  C18 UNL     1      -8.019  -6.570  -9.771  1.00  0.00    +0.141 A 
ENDROOT
BRANCH   4  12
ATOM     12  N1  UNL     1     -10.660  -7.422  -6.586  1.00  0.00    -0.285 N 
ATOM     13  C5  UNL     1     -11.065  -6.512  -5.674  1.00  0.00    +0.198 A 
ATOM     14  N2  UNL     1     -11.186  -6.671  -4.378  1.00  0.00    -0.214 NA
ATOM     15  C6  UNL     1     -11.608  -5.452  -3.899  1.00  0.00    +0.091 A 
ATOM     16  C7  UNL     1     -11.865  -5.044  -2.581  1.00  0.00    +0.030 A 
ATOM     17  C8  UNL     1     -12.283  -3.725  -2.354  1.00  0.00    +0.002 A 
ATOM     18  C9  UNL     1     -12.447  -2.834  -3.418  1.00  0.00    +0.002 A 
ATOM     19  C10 UNL     1     -12.199  -3.222  -4.740  1.00  0.00    +0.028 A 
ATOM     20  C11 UNL     1     -11.779  -4.539  -4.934  1.00  0.00    +0.067 A 
ATOM     21  N3  UNL     1     -11.450  -5.250  -6.057  1.00  0.00    -0.326 N 
ATOM     22  H5  UNL     1     -10.367  -8.299  -6.158  1.00  0.00    +0.155 HD
ATOM     23  H10 UNL     1     -11.462  -4.922  -7.011  1.00  0.00    +0.169 HD
ENDBRANCH   4  12
BRANCH  11  24
ATOM     24  O1  UNL     1      -7.145  -6.288 -10.803  1.00  0.00    -0.436 OA
BRANCH  24  25
ATOM     25  C19 UNL     1      -6.710  -4.962 -10.905  1.00  0.00    +0.230 A 
ATOM     26  N4  UNL     1      -7.624  -3.968 -10.731  1.00  0.00    -0.220 NA
ATOM     27  C20 UNL     1      -7.194  -2.700 -10.867  1.00  0.00    +0.114 A 
ATOM     28  C21 UNL     1      -5.889  -2.368 -11.168  1.00  0.00    +0.021 A 
ATOM     29  C22 UNL     1      -4.971  -3.400 -11.333  1.00  0.00    +0.017 A 
ATOM     30  C23 UNL     1      -5.357  -4.747 -11.198  1.00  0.00    +0.062 A 
BRANCH  30  31
ATOM     31  C24 UNL     1      -4.358  -5.820 -11.371  1.00  0.00    +0.081 A 
ATOM     32  C25 UNL     1      -4.480  -6.833 -12.300  1.00  0.00    +0.048 A 
ATOM     33  C26 UNL     1      -3.473  -7.765 -12.313  1.00  0.00    +0.116 A 
ATOM     34  N5  UNL     1      -2.425  -7.737 -11.475  1.00  0.00    -0.223 NA
ATOM     35  C27 UNL     1      -2.380  -6.730 -10.597  1.00  0.00    +0.216 A 
ATOM     36  N6  UNL     1      -1.341  -6.628  -9.682  1.00  0.00    -0.309 N 
ATOM     37  N8  UNL     1      -3.315  -5.777 -10.508  1.00  0.00    -0.214 NA
ATOM     38  H20 UNL     1      -1.682  -5.984  -8.974  1.00  0.00    +0.149 HD
BRANCH  36  39
ATOM     39  C28 UNL     1      -0.820  -7.900  -9.184  1.00  0.00    +0.087 C 
ATOM     40  C29 UNL     1       0.641  -8.079  -9.613  1.00  0.00    +0.025 C 
ATOM     41  C30 UNL     1       1.244  -9.367  -9.038  1.00  0.00    +0.017 C 
ATOM     42  C31 UNL     1       0.426  -9.957  -7.887  1.00  0.00    +0.081 C 
ATOM     43  N7  UNL     1      -0.030  -8.924  -6.958  1.00  0.00    -0.314 NA
ATOM     44  C32 UNL     1      -0.883  -7.926  -7.630  1.00  0.00    +0.103 C 
ATOM     45  H28 UNL     1       0.789  -8.445  -6.578  1.00  0.00    +0.122 HD
ENDBRANCH  36  39
ENDBRANCH  30  31
ENDBRANCH  24  25
ENDBRANCH  11  24
TORSDOF 5
ENDMDL
MODEL 8
REMARK VINA RESULT:    -5.441      4.069      8.939
REMARK INTER + INTRA:          -8.342
REMARK INTER:                  -7.083
REMARK INTRA:                  -1.259
REMARK UNBOUND:                -1.311
REMARK  Name = docking/ligands/IRE1_CHEMBL3356002.pdb
REMARK  6 active torsions:
REMARK  status: ('A' for Active; 'I' for Inactive)
REMARK    1  A    between atoms: C1_1  and  C2_2
REMARK    2  A    between atoms: C4_4  and  N1_5
REMARK    3  A    between atoms: C18_21  and  O1_22
REMARK    4  A    between atoms: O1_22  and  C19_23
REMARK    5  A    between atoms: C23_28  and  C24_29
REMARK    6  A    between atoms: N6_34  and  C28_35
REMARK                            x       y       z     vdW  Elec       q    Type
REMARK                         _______ _______ _______ _____ _____    ______ ____
ROOT
ATOM      1  C1  UNL     1     -13.380  -1.690 -10.624  1.00  0.00    +0.047 C 
ATOM      2  C2  UNL     1     -13.453  -1.387  -9.156  1.00  0.00    -0.006 A 
ATOM      3  C3  UNL     1     -14.164  -0.269  -8.717  1.00  0.00    +0.031 A 
ATOM      4  C4  UNL     1     -14.280   0.037  -7.349  1.00  0.00    +0.042 A 
ATOM      5  C12 UNL     1     -13.594  -0.753  -6.388  1.00  0.00    +0.007 A 
ATOM      6  C13 UNL     1     -13.612  -0.446  -5.007  1.00  0.00    +0.010 A 
ATOM      7  C14 UNL     1     -12.936  -1.232  -4.072  1.00  0.00    +0.001 A 
ATOM      8  C15 UNL     1     -12.231  -2.350  -4.493  1.00  0.00    +0.001 A 
ATOM      9  C16 UNL     1     -12.205  -2.682  -5.848  1.00  0.00    +0.012 A 
ATOM     10  C17 UNL     1     -12.877  -1.900  -6.814  1.00  0.00    +0.026 A 
ATOM     11  C18 UNL     1     -12.860  -2.219  -8.194  1.00  0.00    +0.141 A 
ENDROOT
BRANCH   4  12
ATOM     12  N1  UNL     1     -14.984   1.211  -6.939  1.00  0.00    -0.285 N 
ATOM     13  C5  UNL     1     -14.380   2.398  -6.712  1.00  0.00    +0.198 A 
ATOM     14  N2  UNL     1     -14.612   3.244  -5.737  1.00  0.00    -0.214 NA
ATOM     15  C6  UNL     1     -13.729   4.280  -5.936  1.00  0.00    +0.091 A 
ATOM     16  C7  UNL     1     -13.518   5.440  -5.176  1.00  0.00    +0.030 A 
ATOM     17  C8  UNL     1     -12.537   6.351  -5.595  1.00  0.00    +0.002 A 
ATOM     18  C9  UNL     1     -11.786   6.112  -6.749  1.00  0.00    +0.002 A 
ATOM     19  C10 UNL     1     -11.984   4.963  -7.523  1.00  0.00    +0.028 A 
ATOM     20  C11 UNL     1     -12.963   4.073  -7.079  1.00  0.00    +0.067 A 
ATOM     21  N3  UNL     1     -13.417   2.877  -7.567  1.00  0.00    -0.326 N 
ATOM     22  H5  UNL     1     -15.646   0.963  -6.206  1.00  0.00    +0.155 HD
ATOM     23  H10 UNL     1     -13.104   2.400  -8.398  1.00  0.00    +0.169 HD
ENDBRANCH   4  12
BRANCH  11  24
ATOM     24  O1  UNL     1     -12.172  -3.340  -8.617  1.00  0.00    -0.436 OA
BRANCH  24  25
ATOM     25  C19 UNL     1     -10.788  -3.203  -8.758  1.00  0.00    +0.230 A 
ATOM     26  N4  UNL     1     -10.300  -2.027  -9.239  1.00  0.00    -0.220 NA
ATOM     27  C20 UNL     1      -8.968  -1.927  -9.400  1.00  0.00    +0.114 A 
ATOM     28  C21 UNL     1      -8.087  -2.946  -9.103  1.00  0.00    +0.021 A 
ATOM     29  C22 UNL     1      -8.607  -4.137  -8.605  1.00  0.00    +0.017 A 
ATOM     30  C23 UNL     1      -9.991  -4.303  -8.408  1.00  0.00    +0.062 A 
BRANCH  30  31
ATOM     31  C24 UNL     1     -10.512  -5.574  -7.871  1.00  0.00    +0.081 A 
ATOM     32  C25 UNL     1     -10.841  -6.658  -8.659  1.00  0.00    +0.048 A 
ATOM     33  C26 UNL     1     -11.335  -7.756  -8.001  1.00  0.00    +0.116 A 
ATOM     34  N5  UNL     1     -11.519  -7.804  -6.672  1.00  0.00    -0.223 NA
ATOM     35  C27 UNL     1     -11.185  -6.713  -5.976  1.00  0.00    +0.216 A 
ATOM     36  N6  UNL     1     -11.355  -6.667  -4.599  1.00  0.00    -0.309 N 
ATOM     37  N8  UNL     1     -10.699  -5.596  -6.529  1.00  0.00    -0.214 NA
ATOM     38  H20 UNL     1     -11.312  -5.680  -4.366  1.00  0.00    +0.149 HD
BRANCH  36  39
ATOM     39  C28 UNL     1     -12.519  -7.389  -4.088  1.00  0.00    +0.087 C 
ATOM     40  C29 UNL     1     -12.075  -8.510  -3.141  1.00  0.00    +0.025 C 
ATOM     41  C30 UNL     1     -13.276  -9.235  -2.523  1.00  0.00    +0.017 C 
ATOM     42  C31 UNL     1     -14.589  -8.461  -2.662  1.00  0.00    +0.081 C 
ATOM     43  N7  UNL     1     -14.412  -7.037  -2.379  1.00  0.00    -0.314 NA
ATOM     44  C32 UNL     1     -13.441  -6.416  -3.300  1.00  0.00    +0.103 C 
ATOM     45  H28 UNL     1     -14.061  -6.936  -1.425  1.00  0.00    +0.122 HD
ENDBRANCH  36  39
ENDBRANCH  30  31
ENDBRANCH  24  25
ENDBRANCH  11  24
TORSDOF 5
ENDMDL
MODEL 9
REMARK VINA RESULT:    -5.431      3.846      9.367
REMARK INTER + INTRA:          -8.329
REMARK INTER:                  -7.019
REMARK INTRA:                  -1.311
REMARK UNBOUND:                -1.311
REMARK  Name = docking/ligands/IRE1_CHEMBL3356002.pdb
REMARK  6 active torsions:
REMARK  status: ('A' for Active; 'I' for Inactive)
REMARK    1  A    between atoms: C1_1  and  C2_2
REMARK    2  A    between atoms: C4_4  and  N1_5
REMARK    3  A    between atoms: C18_21  and  O1_22
REMARK    4  A    between atoms: O1_22  and  C19_23
REMARK    5  A    between atoms: C23_28  and  C24_29
REMARK    6  A    between atoms: N6_34  and  C28_35
REMARK                            x       y       z     vdW  Elec       q    Type
REMARK                         _______ _______ _______ _____ _____    ______ ____
ROOT
ATOM      1  C1  UNL     1     -11.671  -2.696  -3.236  1.00  0.00    +0.047 C 
ATOM      2  C2  UNL     1     -12.280  -2.320  -4.554  1.00  0.00    -0.006 A 
ATOM      3  C3  UNL     1     -12.973  -1.115  -4.676  1.00  0.00    +0.031 A 
ATOM      4  C4  UNL     1     -13.537  -0.711  -5.900  1.00  0.00    +0.042 A 
ATOM      5  C12 UNL     1     -13.480  -1.579  -7.024  1.00  0.00    +0.007 A 
ATOM      6  C13 UNL     1     -14.097  -1.260  -8.257  1.00  0.00    +0.010 A 
ATOM      7  C14 UNL     1     -14.030  -2.119  -9.354  1.00  0.00    +0.001 A 
ATOM      8  C15 UNL     1     -13.339  -3.317  -9.251  1.00  0.00    +0.001 A 
ATOM      9  C16 UNL     1     -12.713  -3.653  -8.049  1.00  0.00    +0.012 A 
ATOM     10  C17 UNL     1     -12.769  -2.802  -6.923  1.00  0.00    +0.026 A 
ATOM     11  C18 UNL     1     -12.143  -3.127  -5.695  1.00  0.00    +0.141 A 
ENDROOT
BRANCH   4  12
ATOM     12  N1  UNL     1     -14.272   0.511  -5.978  1.00  0.00    -0.285 N 
ATOM     13  C5  UNL     1     -13.689   1.723  -6.103  1.00  0.00    +0.198 A 
ATOM     14  N2  UNL     1     -14.015   2.838  -5.496  1.00  0.00    -0.214 NA
ATOM     15  C6  UNL     1     -13.110   3.774  -5.942  1.00  0.00    +0.091 A 
ATOM     16  C7  UNL     1     -12.971   5.126  -5.597  1.00  0.00    +0.030 A 
ATOM     17  C8  UNL     1     -11.948   5.873  -6.198  1.00  0.00    +0.002 A 
ATOM     18  C9  UNL     1     -11.083   5.285  -7.126  1.00  0.00    +0.002 A 
ATOM     19  C10 UNL     1     -11.207   3.938  -7.486  1.00  0.00    +0.028 A 
ATOM     20  C11 UNL     1     -12.232   3.219  -6.868  1.00  0.00    +0.067 A 
ATOM     21  N3  UNL     1     -12.640   1.917  -6.970  1.00  0.00    -0.326 N 
ATOM     22  H5  UNL     1     -15.008   0.503  -5.273  1.00  0.00    +0.155 HD
ATOM     23  H10 UNL     1     -12.246   1.199  -7.558  1.00  0.00    +0.169 HD
ENDBRANCH   4  12
BRANCH  11  24
ATOM     24  O1  UNL     1     -11.440  -4.312  -5.590  1.00  0.00    -0.436 OA
BRANCH  24  25
ATOM     25  C19 UNL     1     -12.201  -5.476  -5.454  1.00  0.00    +0.230 A 
ATOM     26  N4  UNL     1     -13.384  -5.400  -4.783  1.00  0.00    -0.220 NA
ATOM     27  C20 UNL     1     -14.086  -6.538  -4.632  1.00  0.00    +0.114 A 
ATOM     28  C21 UNL     1     -13.670  -7.759  -5.121  1.00  0.00    +0.021 A 
ATOM     29  C22 UNL     1     -12.461  -7.812  -5.810  1.00  0.00    +0.017 A 
ATOM     30  C23 UNL     1     -11.683  -6.655  -6.006  1.00  0.00    +0.062 A 
BRANCH  30  31
ATOM     31  C24 UNL     1     -10.411  -6.741  -6.749  1.00  0.00    +0.081 A 
ATOM     32  C25 UNL     1      -9.319  -7.463  -6.312  1.00  0.00    +0.048 A 
ATOM     33  C26 UNL     1      -8.205  -7.418  -7.111  1.00  0.00    +0.116 A 
ATOM     34  N5  UNL     1      -8.137  -6.710  -8.249  1.00  0.00    -0.223 NA
ATOM     35  C27 UNL     1      -9.230  -6.030  -8.604  1.00  0.00    +0.216 A 
ATOM     36  N6  UNL     1      -9.247  -5.258  -9.758  1.00  0.00    -0.309 N 
ATOM     37  N8  UNL     1     -10.362  -6.011  -7.889  1.00  0.00    -0.214 NA
ATOM     38  H20 UNL     1     -10.046  -4.641  -9.646  1.00  0.00    +0.149 HD
BRANCH  36  39
ATOM     39  C28 UNL     1      -7.983  -4.603 -10.090  1.00  0.00    +0.087 C 
ATOM     40  C29 UNL     1      -7.776  -4.588 -11.609  1.00  0.00    +0.025 C 
ATOM     41  C30 UNL     1      -6.497  -3.837 -11.997  1.00  0.00    +0.017 C 
ATOM     42  C31 UNL     1      -5.946  -2.958 -10.872  1.00  0.00    +0.081 C 
ATOM     43  N7  UNL     1      -7.008  -2.223 -10.186  1.00  0.00    -0.314 NA
ATOM     44  C32 UNL     1      -7.998  -3.134  -9.582  1.00  0.00    +0.103 C 
ATOM     45  H28 UNL     1      -7.487  -1.633 -10.869  1.00  0.00    +0.122 HD
ENDBRANCH  36  39
ENDBRANCH  30  31
ENDBRANCH  24  25
ENDBRANCH  11  24
TORSDOF 5
ENDMDL
