MODEL 1
REMARK VINA RESULT:    -6.241      0.000      0.000
REMARK INTER + INTRA:          -7.059
REMARK INTER:                  -6.907
REMARK INTRA:                  -0.152
REMARK UNBOUND:                -0.088
REMARK  Name = docking/ligands/Lestaurtinib.pdb
REMARK  4 active torsions:
REMARK  status: ('A' for Active; 'I' for Inactive)
REMARK    1  A    between atoms: C1_1  and  C2_2
REMARK    2  A    between atoms: C5_6  and  O2_7
REMARK    3  A    between atoms: C5_6  and  C6_8
REMARK    4  A    between atoms: C6_8  and  O3_9
REMARK                            x       y       z     vdW  Elec       q    Type
REMARK                         _______ _______ _______ _____ _____    ______ ____
ROOT
ATOM      1  C1  UNL     1      -6.834  -4.718 -12.230  1.00  0.00    +0.070 C 
ATOM      2  C2  UNL     1      -7.105  -4.905 -10.728  1.00  0.00    +0.178 C 
ATOM      3  O1  UNL     1      -8.240  -5.838 -10.781  1.00  0.00    -0.328 OA
ATOM      4  C3  UNL     1      -9.171  -5.480  -9.757  1.00  0.00    +0.226 C 
ATOM      5  C4  UNL     1      -9.100  -3.968  -9.638  1.00  0.00    +0.096 C 
ATOM      6  C5  UNL     1      -7.634  -3.638  -9.951  1.00  0.00    +0.141 C 
ATOM      7  N1  UNL     1      -8.865  -6.238  -8.552  1.00  0.00    -0.311 N 
ATOM      8  C7  UNL     1      -9.787  -6.700  -7.629  1.00  0.00    +0.052 A 
ATOM      9  C8  UNL     1     -11.176  -6.493  -7.533  1.00  0.00    +0.026 A 
ATOM     10  C9  UNL     1     -11.866  -7.102  -6.480  1.00  0.00    +0.002 A 
ATOM     11  C10 UNL     1     -11.197  -7.890  -5.549  1.00  0.00    +0.001 A 
ATOM     12  C11 UNL     1      -9.817  -8.093  -5.651  1.00  0.00    +0.010 A 
ATOM     13  C12 UNL     1      -9.085  -7.498  -6.705  1.00  0.00    +0.008 A 
ATOM     14  C13 UNL     1      -7.707  -7.500  -7.091  1.00  0.00    +0.022 A 
ATOM     15  C14 UNL     1      -6.478  -8.045  -6.683  1.00  0.00    +0.052 A 
ATOM     16  C15 UNL     1      -5.218  -7.792  -7.316  1.00  0.00    -0.008 A 
ATOM     17  C16 UNL     1      -5.101  -6.940  -8.429  1.00  0.00    +0.015 A 
ATOM     18  C17 UNL     1      -4.060  -6.392  -9.230  1.00  0.00    +0.008 A 
ATOM     19  C18 UNL     1      -2.656  -6.532  -9.207  1.00  0.00    +0.010 A 
ATOM     20  C19 UNL     1      -1.863  -5.772 -10.068  1.00  0.00    +0.001 A 
ATOM     21  C20 UNL     1      -2.450  -4.866 -10.939  1.00  0.00    +0.002 A 
ATOM     22  C21 UNL     1      -3.840  -4.712 -10.992  1.00  0.00    +0.026 A 
ATOM     23  C22 UNL     1      -4.648  -5.499 -10.152  1.00  0.00    +0.053 A 
ATOM     24  N2  UNL     1      -6.027  -5.600  -9.999  1.00  0.00    -0.307 N 
ATOM     25  C23 UNL     1      -6.272  -6.401  -8.912  1.00  0.00    +0.077 A 
ATOM     26  C24 UNL     1      -7.629  -6.694  -8.212  1.00  0.00    +0.077 A 
ATOM     27  C25 UNL     1      -4.141  -8.526  -6.571  1.00  0.00    +0.141 C 
ATOM     28  N3  UNL     1      -4.869  -9.215  -5.541  1.00  0.00    -0.307 N 
ATOM     29  C26 UNL     1      -6.220  -8.943  -5.548  1.00  0.00    +0.245 C 
ATOM     30  O4  UNL     1      -7.019  -9.380  -4.742  1.00  0.00    -0.270 OA
ATOM     31  H21 UNL     1      -4.464  -9.792  -4.816  1.00  0.00    +0.149 HD
ENDROOT
BRANCH   6  32
ATOM     32  O2  UNL     1      -6.984  -3.423  -8.672  1.00  0.00    -0.381 OA
ATOM     33  H7  UNL     1      -7.668  -3.603  -7.982  1.00  0.00    +0.210 HD
ENDBRANCH   6  32
BRANCH   6  34
ATOM     34  C6  UNL     1      -7.509  -2.298 -10.703  1.00  0.00    +0.195 C 
BRANCH  34  35
ATOM     35  O3  UNL     1      -6.192  -1.765 -10.523  1.00  0.00    -0.392 OA
ATOM     36  H10 UNL     1      -6.284  -0.792 -10.377  1.00  0.00    +0.210 HD
ENDBRANCH  34  35
ENDBRANCH   6  34
TORSDOF 3
ENDMDL
MODEL 2
REMARK VINA RESULT:    -5.829      1.565      5.733
REMARK INTER + INTRA:          -6.598
REMARK INTER:                  -6.480
REMARK INTRA:                  -0.117
REMARK UNBOUND:                -0.088
REMARK  Name = docking/ligands/Lestaurtinib.pdb
REMARK  4 active torsions:
REMARK  status: ('A' for Active; 'I' for Inactive)
REMARK    1  A    between atoms: C1_1  and  C2_2
REMARK    2  A    between atoms: C5_6  and  O2_7
REMARK    3  A    between atoms: C5_6  and  C6_8
REMARK    4  A    between atoms: C6_8  and  O3_9
REMARK                            x       y       z     vdW  Elec       q    Type
REMARK                         _______ _______ _______ _____ _____    ______ ____
ROOT
ATOM      1  C1  UNL     1      -9.215  -4.364  -8.907  1.00  0.00    +0.070 C 
ATOM      2  C2  UNL     1      -8.054  -5.317  -9.238  1.00  0.00    +0.178 C 
ATOM      3  O1  UNL     1      -6.922  -4.382  -9.176  1.00  0.00    -0.328 OA
ATOM      4  C3  UNL     1      -6.004  -4.711 -10.222  1.00  0.00    +0.226 C 
ATOM      5  C4  UNL     1      -6.851  -5.212 -11.379  1.00  0.00    +0.096 C 
ATOM      6  C5  UNL     1      -8.035  -5.913 -10.698  1.00  0.00    +0.141 C 
ATOM      7  N1  UNL     1      -5.007  -5.636  -9.704  1.00  0.00    -0.311 N 
ATOM      8  C7  UNL     1      -3.677  -5.693 -10.087  1.00  0.00    +0.052 A 
ATOM      9  C8  UNL     1      -2.979  -5.000 -11.093  1.00  0.00    +0.026 A 
ATOM     10  C9  UNL     1      -1.614  -5.259 -11.251  1.00  0.00    +0.002 A 
ATOM     11  C10 UNL     1      -0.962  -6.179 -10.436  1.00  0.00    +0.001 A 
ATOM     12  C11 UNL     1      -1.662  -6.863  -9.436  1.00  0.00    +0.010 A 
ATOM     13  C12 UNL     1      -3.042  -6.626  -9.243  1.00  0.00    +0.008 A 
ATOM     14  C13 UNL     1      -4.029  -7.138  -8.341  1.00  0.00    +0.022 A 
ATOM     15  C14 UNL     1      -4.139  -8.043  -7.273  1.00  0.00    +0.052 A 
ATOM     16  C15 UNL     1      -5.358  -8.358  -6.587  1.00  0.00    -0.008 A 
ATOM     17  C16 UNL     1      -6.587  -7.775  -6.946  1.00  0.00    +0.015 A 
ATOM     18  C17 UNL     1      -7.957  -7.903  -6.585  1.00  0.00    +0.008 A 
ATOM     19  C18 UNL     1      -8.631  -8.713  -5.646  1.00  0.00    +0.010 A 
ATOM     20  C19 UNL     1     -10.025  -8.700  -5.585  1.00  0.00    +0.001 A 
ATOM     21  C20 UNL     1     -10.754  -7.903  -6.455  1.00  0.00    +0.002 A 
ATOM     22  C21 UNL     1     -10.114  -7.082  -7.390  1.00  0.00    +0.026 A 
ATOM     23  C22 UNL     1      -8.709  -7.063  -7.435  1.00  0.00    +0.053 A 
ATOM     24  N2  UNL     1      -7.802  -6.346  -8.209  1.00  0.00    -0.307 N 
ATOM     25  C23 UNL     1      -6.548  -6.845  -7.960  1.00  0.00    +0.077 A 
ATOM     26  C24 UNL     1      -5.214  -6.515  -8.687  1.00  0.00    +0.077 A 
ATOM     27  C25 UNL     1      -5.073  -9.388  -5.533  1.00  0.00    +0.141 C 
ATOM     28  N3  UNL     1      -3.654  -9.586  -5.646  1.00  0.00    -0.307 N 
ATOM     29  C26 UNL     1      -3.076  -8.852  -6.660  1.00  0.00    +0.245 C 
ATOM     30  O4  UNL     1      -1.899  -8.897  -6.964  1.00  0.00    -0.270 OA
ATOM     31  H21 UNL     1      -3.104 -10.244  -5.110  1.00  0.00    +0.149 HD
ENDROOT
BRANCH   6  32
ATOM     32  O2  UNL     1      -7.746  -7.335 -10.746  1.00  0.00    -0.381 OA
ATOM     33  H7  UNL     1      -8.147  -7.724  -9.930  1.00  0.00    +0.210 HD
ENDBRANCH   6  32
BRANCH   6  34
ATOM     34  C6  UNL     1      -9.334  -5.732 -11.507  1.00  0.00    +0.195 C 
BRANCH  34  35
ATOM     35  O3  UNL     1      -9.239  -4.553 -12.313  1.00  0.00    -0.392 OA
ATOM     36  H10 UNL     1      -9.394  -4.822 -13.251  1.00  0.00    +0.210 HD
ENDBRANCH  34  35
ENDBRANCH   6  34
TORSDOF 3
ENDMDL
MODEL 3
REMARK VINA RESULT:    -5.716      9.042     12.604
REMARK INTER + INTRA:          -6.471
REMARK INTER:                  -6.329
REMARK INTRA:                  -0.142
REMARK UNBOUND:                -0.088
REMARK  Name = docking/ligands/Lestaurtinib.pdb
REMARK  4 active torsions:
REMARK  status: ('A' for Active; 'I' for Inactive)
REMARK    1  A    between atoms: C1_1  and  C2_2
REMARK    2  A    between atoms: C5_6  and  O2_7
REMARK    3  A    between atoms: C5_6  and  C6_8
REMARK    4  A    between atoms: C6_8  and  O3_9
REMARK                            x       y       z     vdW  Elec       q    Type
REMARK                         _______ _______ _______ _____ _____    ______ ____
ROOT
ATOM      1  C1  UNL     1     -15.952   2.599  -4.414  1.00  0.00    +0.070 C 
ATOM      2  C2  UNL     1     -14.617   2.326  -5.126  1.00  0.00    +0.178 C 
ATOM      3  O1  UNL     1     -15.100   1.630  -6.328  1.00  0.00    -0.328 OA
ATOM      4  C3  UNL     1     -14.190   0.571  -6.637  1.00  0.00    +0.226 C 
ATOM      5  C4  UNL     1     -13.674   0.063  -5.302  1.00  0.00    +0.096 C 
ATOM      6  C5  UNL     1     -13.640   1.314  -4.413  1.00  0.00    +0.141 C 
ATOM      7  N1  UNL     1     -13.187   1.064  -7.570  1.00  0.00    -0.311 N 
ATOM      8  C7  UNL     1     -12.584   0.327  -8.575  1.00  0.00    +0.052 A 
ATOM      9  C8  UNL     1     -12.673  -1.040  -8.894  1.00  0.00    +0.026 A 
ATOM     10  C9  UNL     1     -11.945  -1.516  -9.989  1.00  0.00    +0.002 A 
ATOM     11  C10 UNL     1     -11.150  -0.659 -10.744  1.00  0.00    +0.001 A 
ATOM     12  C11 UNL     1     -11.067   0.701 -10.423  1.00  0.00    +0.010 A 
ATOM     13  C12 UNL     1     -11.792   1.220  -9.325  1.00  0.00    +0.008 A 
ATOM     14  C13 UNL     1     -11.929   2.519  -8.740  1.00  0.00    +0.022 A 
ATOM     15  C14 UNL     1     -11.475   3.834  -8.930  1.00  0.00    +0.052 A 
ATOM     16  C15 UNL     1     -11.799   4.944  -8.084  1.00  0.00    -0.008 A 
ATOM     17  C16 UNL     1     -12.618   4.802  -6.949  1.00  0.00    +0.015 A 
ATOM     18  C17 UNL     1     -13.063   5.608  -5.864  1.00  0.00    +0.008 A 
ATOM     19  C18 UNL     1     -12.841   6.958  -5.517  1.00  0.00    +0.010 A 
ATOM     20  C19 UNL     1     -13.330   7.459  -4.310  1.00  0.00    +0.001 A 
ATOM     21  C20 UNL     1     -14.024   6.630  -3.441  1.00  0.00    +0.002 A 
ATOM     22  C21 UNL     1     -14.268   5.290  -3.761  1.00  0.00    +0.026 A 
ATOM     23  C22 UNL     1     -13.809   4.786  -4.991  1.00  0.00    +0.053 A 
ATOM     24  N2  UNL     1     -13.921   3.539  -5.598  1.00  0.00    -0.307 N 
ATOM     25  C23 UNL     1     -13.135   3.546  -6.723  1.00  0.00    +0.077 A 
ATOM     26  C24 UNL     1     -12.773   2.357  -7.658  1.00  0.00    +0.077 A 
ATOM     27  C25 UNL     1     -11.098   6.170  -8.595  1.00  0.00    +0.141 C 
ATOM     28  N3  UNL     1     -10.419   5.691  -9.768  1.00  0.00    -0.307 N 
ATOM     29  C26 UNL     1     -10.583   4.340  -9.984  1.00  0.00    +0.245 C 
ATOM     30  O4  UNL     1     -10.064   3.715 -10.889  1.00  0.00    -0.270 OA
ATOM     31  H21 UNL     1      -9.810   6.236 -10.361  1.00  0.00    +0.149 HD
ENDROOT
BRANCH   6  32
ATOM     32  O2  UNL     1     -12.258   1.755  -4.387  1.00  0.00    -0.381 OA
ATOM     33  H7  UNL     1     -12.233   2.610  -4.881  1.00  0.00    +0.210 HD
ENDBRANCH   6  32
BRANCH   6  34
ATOM     34  C6  UNL     1     -13.989   0.972  -2.951  1.00  0.00    +0.195 C 
BRANCH  34  35
ATOM     35  O3  UNL     1     -14.528  -0.352  -2.881  1.00  0.00    -0.392 OA
ATOM     36  H10 UNL     1     -13.822  -0.976  -3.181  1.00  0.00    +0.210 HD
ENDBRANCH  34  35
ENDBRANCH   6  34
TORSDOF 3
ENDMDL
MODEL 4
REMARK VINA RESULT:    -5.684      5.053      8.845
REMARK INTER + INTRA:          -6.436
REMARK INTER:                  -6.282
REMARK INTRA:                  -0.154
REMARK UNBOUND:                -0.088
REMARK  Name = docking/ligands/Lestaurtinib.pdb
REMARK  4 active torsions:
REMARK  status: ('A' for Active; 'I' for Inactive)
REMARK    1  A    between atoms: C1_1  and  C2_2
REMARK    2  A    between atoms: C5_6  and  O2_7
REMARK    3  A    between atoms: C5_6  and  C6_8
REMARK    4  A    between atoms: C6_8  and  O3_9
REMARK                            x       y       z     vdW  Elec       q    Type
REMARK                         _______ _______ _______ _____ _____    ______ ____
ROOT
ATOM      1  C1  UNL     1     -12.196  -4.427  -1.460  1.00  0.00    +0.070 C 
ATOM      2  C2  UNL     1     -12.733  -4.195  -2.882  1.00  0.00    +0.178 C 
ATOM      3  O1  UNL     1     -12.421  -2.769  -3.050  1.00  0.00    -0.328 OA
ATOM      4  C3  UNL     1     -13.500  -2.147  -3.754  1.00  0.00    +0.226 C 
ATOM      5  C4  UNL     1     -14.759  -2.870  -3.310  1.00  0.00    +0.096 C 
ATOM      6  C5  UNL     1     -14.295  -4.313  -3.065  1.00  0.00    +0.141 C 
ATOM      7  N1  UNL     1     -13.212  -2.172  -5.181  1.00  0.00    -0.311 N 
ATOM      8  C7  UNL     1     -13.573  -1.200  -6.098  1.00  0.00    +0.052 A 
ATOM      9  C8  UNL     1     -14.363  -0.045  -5.951  1.00  0.00    +0.026 A 
ATOM     10  C9  UNL     1     -14.556   0.774  -7.068  1.00  0.00    +0.002 A 
ATOM     11  C10 UNL     1     -13.985   0.453  -8.296  1.00  0.00    +0.001 A 
ATOM     12  C11 UNL     1     -13.200  -0.697  -8.435  1.00  0.00    +0.010 A 
ATOM     13  C12 UNL     1     -12.977  -1.546  -7.327  1.00  0.00    +0.008 A 
ATOM     14  C13 UNL     1     -12.249  -2.763  -7.128  1.00  0.00    +0.022 A 
ATOM     15  C14 UNL     1     -11.442  -3.659  -7.848  1.00  0.00    +0.052 A 
ATOM     16  C15 UNL     1     -10.877  -4.864  -7.314  1.00  0.00    -0.008 A 
ATOM     17  C16 UNL     1     -11.101  -5.267  -5.986  1.00  0.00    +0.015 A 
ATOM     18  C17 UNL     1     -10.808  -6.391  -5.163  1.00  0.00    +0.008 A 
ATOM     19  C18 UNL     1     -10.112  -7.596  -5.397  1.00  0.00    +0.010 A 
ATOM     20  C19 UNL     1     -10.073  -8.584  -4.412  1.00  0.00    +0.001 A 
ATOM     21  C20 UNL     1     -10.730  -8.390  -3.205  1.00  0.00    +0.002 A 
ATOM     22  C21 UNL     1     -11.420  -7.203  -2.940  1.00  0.00    +0.026 A 
ATOM     23  C22 UNL     1     -11.435  -6.188  -3.914  1.00  0.00    +0.053 A 
ATOM     24  N2  UNL     1     -11.989  -4.913  -3.936  1.00  0.00    -0.307 N 
ATOM     25  C23 UNL     1     -11.850  -4.415  -5.207  1.00  0.00    +0.077 A 
ATOM     26  C24 UNL     1     -12.449  -3.110  -5.805  1.00  0.00    +0.077 A 
ATOM     27  C25 UNL     1     -10.108  -5.564  -8.397  1.00  0.00    +0.141 C 
ATOM     28  N3  UNL     1     -10.243  -4.676  -9.519  1.00  0.00    -0.307 N 
ATOM     29  C26 UNL     1     -11.031  -3.576  -9.257  1.00  0.00    +0.245 C 
ATOM     30  O4  UNL     1     -11.316  -2.718 -10.070  1.00  0.00    -0.270 OA
ATOM     31  H21 UNL     1      -9.878  -4.837 -10.448  1.00  0.00    +0.149 HD
ENDROOT
BRANCH   6  32
ATOM     32  O2  UNL     1     -14.691  -5.070  -4.239  1.00  0.00    -0.381 OA
ATOM     33  H7  UNL     1     -15.619  -4.798  -4.441  1.00  0.00    +0.210 HD
ENDBRANCH   6  32
BRANCH   6  34
ATOM     34  C6  UNL     1     -15.056  -4.955  -1.888  1.00  0.00    +0.195 C 
BRANCH  34  35
ATOM     35  O3  UNL     1     -15.032  -6.381  -2.020  1.00  0.00    -0.392 OA
ATOM     36  H10 UNL     1     -15.953  -6.708  -1.873  1.00  0.00    +0.210 HD
ENDBRANCH  34  35
ENDBRANCH   6  34
TORSDOF 3
ENDMDL
MODEL 5
REMARK VINA RESULT:    -5.649      1.945      3.265
REMARK INTER + INTRA:          -6.397
REMARK INTER:                  -6.265
REMARK INTRA:                  -0.132
REMARK UNBOUND:                -0.088
REMARK  Name = docking/ligands/Lestaurtinib.pdb
REMARK  4 active torsions:
REMARK  status: ('A' for Active; 'I' for Inactive)
REMARK    1  A    between atoms: C1_1  and  C2_2
REMARK    2  A    between atoms: C5_6  and  O2_7
REMARK    3  A    between atoms: C5_6  and  C6_8
REMARK    4  A    between atoms: C6_8  and  O3_9
REMARK                            x       y       z     vdW  Elec       q    Type
REMARK                         _______ _______ _______ _____ _____    ______ ____
ROOT
ATOM      1  C1  UNL     1     -10.487  -3.818 -11.359  1.00  0.00    +0.070 C 
ATOM      2  C2  UNL     1      -9.750  -4.226 -10.072  1.00  0.00    +0.178 C 
ATOM      3  O1  UNL     1     -10.194  -5.622  -9.947  1.00  0.00    -0.328 OA
ATOM      4  C3  UNL     1     -10.424  -5.904  -8.564  1.00  0.00    +0.226 C 
ATOM      5  C4  UNL     1     -10.939  -4.611  -7.956  1.00  0.00    +0.096 C 
ATOM      6  C5  UNL     1     -10.215  -3.512  -8.745  1.00  0.00    +0.141 C 
ATOM      7  N1  UNL     1      -9.207  -6.451  -7.983  1.00  0.00    -0.311 N 
ATOM      8  C7  UNL     1      -9.145  -7.405  -6.981  1.00  0.00    +0.052 A 
ATOM      9  C8  UNL     1     -10.162  -7.998  -6.212  1.00  0.00    +0.026 A 
ATOM     10  C9  UNL     1      -9.800  -8.956  -5.259  1.00  0.00    +0.002 A 
ATOM     11  C10 UNL     1      -8.468  -9.312  -5.075  1.00  0.00    +0.001 A 
ATOM     12  C11 UNL     1      -7.461  -8.719  -5.845  1.00  0.00    +0.010 A 
ATOM     13  C12 UNL     1      -7.788  -7.749  -6.821  1.00  0.00    +0.008 A 
ATOM     14  C13 UNL     1      -7.029  -6.970  -7.751  1.00  0.00    +0.022 A 
ATOM     15  C14 UNL     1      -5.698  -6.781  -8.157  1.00  0.00    +0.052 A 
ATOM     16  C15 UNL     1      -5.268  -5.837  -9.146  1.00  0.00    -0.008 A 
ATOM     17  C16 UNL     1      -6.172  -4.986  -9.806  1.00  0.00    +0.015 A 
ATOM     18  C17 UNL     1      -6.117  -3.903 -10.728  1.00  0.00    +0.008 A 
ATOM     19  C18 UNL     1      -5.049  -3.253 -11.383  1.00  0.00    +0.010 A 
ATOM     20  C19 UNL     1      -5.292  -2.127 -12.169  1.00  0.00    +0.001 A 
ATOM     21  C20 UNL     1      -6.582  -1.633 -12.298  1.00  0.00    +0.002 A 
ATOM     22  C21 UNL     1      -7.663  -2.260 -11.669  1.00  0.00    +0.026 A 
ATOM     23  C22 UNL     1      -7.431  -3.417 -10.904  1.00  0.00    +0.053 A 
ATOM     24  N2  UNL     1      -8.280  -4.266 -10.202  1.00  0.00    -0.307 N 
ATOM     25  C23 UNL     1      -7.502  -5.143  -9.488  1.00  0.00    +0.077 A 
ATOM     26  C24 UNL     1      -7.946  -6.178  -8.416  1.00  0.00    +0.077 A 
ATOM     27  C25 UNL     1      -3.774  -5.911  -9.275  1.00  0.00    +0.141 C 
ATOM     28  N3  UNL     1      -3.418  -6.955  -8.354  1.00  0.00    -0.307 N 
ATOM     29  C26 UNL     1      -4.495  -7.467  -7.662  1.00  0.00    +0.245 C 
ATOM     30  O4  UNL     1      -4.422  -8.324  -6.802  1.00  0.00    -0.270 OA
ATOM     31  H21 UNL     1      -2.479  -7.264  -8.145  1.00  0.00    +0.149 HD
ENDROOT
BRANCH   6  32
ATOM     32  O2  UNL     1      -9.118  -3.065  -7.906  1.00  0.00    -0.381 OA
ATOM     33  H7  UNL     1      -9.084  -2.082  -7.999  1.00  0.00    +0.210 HD
ENDBRANCH   6  32
BRANCH   6  34
ATOM     34  C6  UNL     1     -11.114  -2.274  -8.937  1.00  0.00    +0.195 C 
BRANCH  34  35
ATOM     35  O3  UNL     1     -12.397  -2.516  -8.349  1.00  0.00    -0.392 OA
ATOM     36  H10 UNL     1     -13.018  -1.832  -8.701  1.00  0.00    +0.210 HD
ENDBRANCH  34  35
ENDBRANCH   6  34
TORSDOF 3
ENDMDL
MODEL 6
REMARK VINA RESULT:    -5.597      5.082      9.399
REMARK INTER + INTRA:          -6.339
REMARK INTER:                  -6.254
REMARK INTRA:                  -0.085
REMARK UNBOUND:                -0.088
REMARK  Name = docking/ligands/Lestaurtinib.pdb
REMARK  4 active torsions:
REMARK  status: ('A' for Active; 'I' for Inactive)
REMARK    1  A    between atoms: C1_1  and  C2_2
REMARK    2  A    between atoms: C5_6  and  O2_7
REMARK    3  A    between atoms: C5_6  and  C6_8
REMARK    4  A    between atoms: C6_8  and  O3_9
REMARK                            x       y       z     vdW  Elec       q    Type
REMARK                         _______ _______ _______ _____ _____    ______ ____
ROOT
ATOM      1  C1  UNL     1     -14.921  -4.812  -2.958  1.00  0.00    +0.070 C 
ATOM      2  C2  UNL     1     -13.616  -4.483  -3.703  1.00  0.00    +0.178 C 
ATOM      3  O1  UNL     1     -13.503  -5.667  -4.567  1.00  0.00    -0.328 OA
ATOM      4  C3  UNL     1     -12.127  -6.047  -4.640  1.00  0.00    +0.226 C 
ATOM      5  C4  UNL     1     -11.530  -5.713  -3.284  1.00  0.00    +0.096 C 
ATOM      6  C5  UNL     1     -12.301  -4.464  -2.834  1.00  0.00    +0.141 C 
ATOM      7  N1  UNL     1     -11.516  -5.398  -5.791  1.00  0.00    -0.311 N 
ATOM      8  C7  UNL     1     -10.514  -5.930  -6.584  1.00  0.00    +0.052 A 
ATOM      9  C8  UNL     1      -9.770  -7.118  -6.453  1.00  0.00    +0.026 A 
ATOM     10  C9  UNL     1      -8.809  -7.409  -7.427  1.00  0.00    +0.002 A 
ATOM     11  C10 UNL     1      -8.592  -6.547  -8.497  1.00  0.00    +0.001 A 
ATOM     12  C11 UNL     1      -9.337  -5.368  -8.622  1.00  0.00    +0.010 A 
ATOM     13  C12 UNL     1     -10.320  -5.041  -7.660  1.00  0.00    +0.008 A 
ATOM     14  C13 UNL     1     -11.231  -3.950  -7.491  1.00  0.00    +0.022 A 
ATOM     15  C14 UNL     1     -11.604  -2.755  -8.128  1.00  0.00    +0.052 A 
ATOM     16  C15 UNL     1     -12.581  -1.832  -7.633  1.00  0.00    -0.008 A 
ATOM     17  C16 UNL     1     -13.262  -2.047  -6.421  1.00  0.00    +0.015 A 
ATOM     18  C17 UNL     1     -14.183  -1.346  -5.592  1.00  0.00    +0.008 A 
ATOM     19  C18 UNL     1     -14.810  -0.087  -5.706  1.00  0.00    +0.010 A 
ATOM     20  C19 UNL     1     -15.602   0.397  -4.663  1.00  0.00    +0.001 A 
ATOM     21  C20 UNL     1     -15.762  -0.351  -3.506  1.00  0.00    +0.002 A 
ATOM     22  C21 UNL     1     -15.161  -1.606  -3.367  1.00  0.00    +0.026 A 
ATOM     23  C22 UNL     1     -14.390  -2.116  -4.428  1.00  0.00    +0.053 A 
ATOM     24  N2  UNL     1     -13.710  -3.317  -4.603  1.00  0.00    -0.307 N 
ATOM     25  C23 UNL     1     -12.978  -3.220  -5.761  1.00  0.00    +0.077 A 
ATOM     26  C24 UNL     1     -11.917  -4.211  -6.320  1.00  0.00    +0.077 A 
ATOM     27  C25 UNL     1     -12.674  -0.666  -8.574  1.00  0.00    +0.141 C 
ATOM     28  N3  UNL     1     -11.744  -1.013  -9.615  1.00  0.00    -0.307 N 
ATOM     29  C26 UNL     1     -11.080  -2.198  -9.383  1.00  0.00    +0.245 C 
ATOM     30  O4  UNL     1     -10.219  -2.662 -10.107  1.00  0.00    -0.270 OA
ATOM     31  H21 UNL     1     -11.512  -0.441 -10.415  1.00  0.00    +0.149 HD
ENDROOT
BRANCH   6  32
ATOM     32  O2  UNL     1     -11.435  -3.333  -3.107  1.00  0.00    -0.381 OA
ATOM     33  H7  UNL     1     -11.975  -2.693  -3.631  1.00  0.00    +0.210 HD
ENDBRANCH   6  32
BRANCH   6  34
ATOM     34  C6  UNL     1     -12.514  -4.457  -1.307  1.00  0.00    +0.195 C 
BRANCH  34  35
ATOM     35  O3  UNL     1     -11.484  -3.684  -0.681  1.00  0.00    -0.392 OA
ATOM     36  H10 UNL     1     -11.904  -2.864  -0.325  1.00  0.00    +0.210 HD
ENDBRANCH  34  35
ENDBRANCH   6  34
TORSDOF 3
ENDMDL
MODEL 7
REMARK VINA RESULT:    -5.592      4.392      7.431
REMARK INTER + INTRA:          -6.333
REMARK INTER:                  -6.176
REMARK INTRA:                  -0.157
REMARK UNBOUND:                -0.088
REMARK  Name = docking/ligands/Lestaurtinib.pdb
REMARK  4 active torsions:
REMARK  status: ('A' for Active; 'I' for Inactive)
REMARK    1  A    between atoms: C1_1  and  C2_2
REMARK    2  A    between atoms: C5_6  and  O2_7
REMARK    3  A    between atoms: C5_6  and  C6_8
REMARK    4  A    between atoms: C6_8  and  O3_9
REMARK                            x       y       z     vdW  Elec       q    Type
REMARK                         _______ _______ _______ _____ _____    ______ ____
ROOT
ATOM      1  C1  UNL     1     -15.269  -1.959  -5.799  1.00  0.00    +0.070 C 
ATOM      2  C2  UNL     1     -13.912  -2.621  -5.506  1.00  0.00    +0.178 C 
ATOM      3  O1  UNL     1     -14.339  -4.012  -5.299  1.00  0.00    -0.328 OA
ATOM      4  C3  UNL     1     -13.571  -4.569  -4.229  1.00  0.00    +0.226 C 
ATOM      5  C4  UNL     1     -13.313  -3.427  -3.262  1.00  0.00    +0.096 C 
ATOM      6  C5  UNL     1     -13.200  -2.191  -4.166  1.00  0.00    +0.141 C 
ATOM      7  N1  UNL     1     -12.395  -5.225  -4.781  1.00  0.00    -0.311 N 
ATOM      8  C7  UNL     1     -11.789  -6.363  -4.276  1.00  0.00    +0.052 A 
ATOM      9  C8  UNL     1     -12.046  -7.099  -3.105  1.00  0.00    +0.026 A 
ATOM     10  C9  UNL     1     -11.266  -8.232  -2.848  1.00  0.00    +0.002 A 
ATOM     11  C10 UNL     1     -10.260  -8.620  -3.728  1.00  0.00    +0.001 A 
ATOM     12  C11 UNL     1     -10.011  -7.884  -4.892  1.00  0.00    +0.010 A 
ATOM     13  C12 UNL     1     -10.782  -6.736  -5.188  1.00  0.00    +0.008 A 
ATOM     14  C13 UNL     1     -10.790  -5.785  -6.258  1.00  0.00    +0.022 A 
ATOM     15  C14 UNL     1     -10.119  -5.520  -7.463  1.00  0.00    +0.052 A 
ATOM     16  C15 UNL     1     -10.375  -4.395  -8.313  1.00  0.00    -0.008 A 
ATOM     17  C16 UNL     1     -11.343  -3.426  -7.996  1.00  0.00    +0.015 A 
ATOM     18  C17 UNL     1     -11.792  -2.178  -8.513  1.00  0.00    +0.008 A 
ATOM     19  C18 UNL     1     -11.412  -1.411  -9.635  1.00  0.00    +0.010 A 
ATOM     20  C19 UNL     1     -11.967  -0.147  -9.839  1.00  0.00    +0.001 A 
ATOM     21  C20 UNL     1     -12.884   0.365  -8.933  1.00  0.00    +0.002 A 
ATOM     22  C21 UNL     1     -13.289  -0.375  -7.817  1.00  0.00    +0.026 A 
ATOM     23  C22 UNL     1     -12.760  -1.664  -7.623  1.00  0.00    +0.053 A 
ATOM     24  N2  UNL     1     -12.984  -2.637  -6.654  1.00  0.00    -0.307 N 
ATOM     25  C23 UNL     1     -12.070  -3.642  -6.848  1.00  0.00    +0.077 A 
ATOM     26  C24 UNL     1     -11.780  -4.873  -5.942  1.00  0.00    +0.077 A 
ATOM     27  C25 UNL     1      -9.435  -4.444  -9.483  1.00  0.00    +0.141 C 
ATOM     28  N3  UNL     1      -8.694  -5.655  -9.256  1.00  0.00    -0.307 N 
ATOM     29  C26 UNL     1      -9.035  -6.294  -8.083  1.00  0.00    +0.245 C 
ATOM     30  O4  UNL     1      -8.507  -7.309  -7.669  1.00  0.00    -0.270 OA
ATOM     31  H21 UNL     1      -7.938  -6.002  -9.830  1.00  0.00    +0.149 HD
ENDROOT
BRANCH   6  32
ATOM     32  O2  UNL     1     -11.781  -1.926  -4.316  1.00  0.00    -0.381 OA
ATOM     33  H7  UNL     1     -11.659  -0.966  -4.119  1.00  0.00    +0.210 HD
ENDBRANCH   6  32
BRANCH   6  34
ATOM     34  C6  UNL     1     -13.779  -0.939  -3.479  1.00  0.00    +0.195 C 
BRANCH  34  35
ATOM     35  O3  UNL     1     -13.151   0.235  -4.007  1.00  0.00    -0.392 OA
ATOM     36  H10 UNL     1     -13.238   0.199  -4.991  1.00  0.00    +0.210 HD
ENDBRANCH  34  35
ENDBRANCH   6  34
TORSDOF 3
ENDMDL
MODEL 8
REMARK VINA RESULT:    -5.339      6.462      9.233
REMARK INTER + INTRA:          -6.050
REMARK INTER:                  -5.902
REMARK INTRA:                  -0.148
REMARK UNBOUND:                -0.088
REMARK  Name = docking/ligands/Lestaurtinib.pdb
REMARK  4 active torsions:
REMARK  status: ('A' for Active; 'I' for Inactive)
REMARK    1  A    between atoms: C1_1  and  C2_2
REMARK    2  A    between atoms: C5_6  and  O2_7
REMARK    3  A    between atoms: C5_6  and  C6_8
REMARK    4  A    between atoms: C6_8  and  O3_9
REMARK                            x       y       z     vdW  Elec       q    Type
REMARK                         _______ _______ _______ _____ _____    ______ ____
ROOT
ATOM      1  C1  UNL     1     -15.948   1.301  -5.533  1.00  0.00    +0.070 C 
ATOM      2  C2  UNL     1     -14.714   0.427  -5.255  1.00  0.00    +0.178 C 
ATOM      3  O1  UNL     1     -15.366  -0.832  -4.866  1.00  0.00    -0.328 OA
ATOM      4  C3  UNL     1     -14.624  -1.415  -3.792  1.00  0.00    +0.226 C 
ATOM      5  C4  UNL     1     -14.083  -0.252  -2.978  1.00  0.00    +0.096 C 
ATOM      6  C5  UNL     1     -13.826   0.845  -4.020  1.00  0.00    +0.141 C 
ATOM      7  N1  UNL     1     -13.635  -2.332  -4.341  1.00  0.00    -0.311 N 
ATOM      8  C7  UNL     1     -13.204  -3.508  -3.752  1.00  0.00    +0.052 A 
ATOM      9  C8  UNL     1     -13.491  -4.064  -2.491  1.00  0.00    +0.026 A 
ATOM     10  C9  UNL     1     -12.909  -5.292  -2.160  1.00  0.00    +0.002 A 
ATOM     11  C10 UNL     1     -12.067  -5.947  -3.053  1.00  0.00    +0.001 A 
ATOM     12  C11 UNL     1     -11.787  -5.389  -4.305  1.00  0.00    +0.010 A 
ATOM     13  C12 UNL     1     -12.360  -4.152  -4.678  1.00  0.00    +0.008 A 
ATOM     14  C13 UNL     1     -12.287  -3.326  -5.845  1.00  0.00    +0.022 A 
ATOM     15  C14 UNL     1     -11.683  -3.312  -7.113  1.00  0.00    +0.052 A 
ATOM     16  C15 UNL     1     -11.802  -2.248  -8.067  1.00  0.00    -0.008 A 
ATOM     17  C16 UNL     1     -12.549  -1.087  -7.798  1.00  0.00    +0.015 A 
ATOM     18  C17 UNL     1     -12.808   0.165  -8.423  1.00  0.00    +0.008 A 
ATOM     19  C18 UNL     1     -12.391   0.733  -9.645  1.00  0.00    +0.010 A 
ATOM     20  C19 UNL     1     -12.725   2.052  -9.954  1.00  0.00    +0.001 A 
ATOM     21  C20 UNL     1     -13.455   2.815  -9.054  1.00  0.00    +0.002 A 
ATOM     22  C21 UNL     1     -13.892   2.277  -7.838  1.00  0.00    +0.026 A 
ATOM     23  C22 UNL     1     -13.589   0.937  -7.535  1.00  0.00    +0.053 A 
ATOM     24  N2  UNL     1     -13.903   0.124  -6.451  1.00  0.00    -0.307 N 
ATOM     25  C23 UNL     1     -13.205  -1.049  -6.589  1.00  0.00    +0.077 A 
ATOM     26  C24 UNL     1     -13.066  -2.218  -5.572  1.00  0.00    +0.077 A 
ATOM     27  C25 UNL     1     -10.987  -2.588  -9.281  1.00  0.00    +0.141 C 
ATOM     28  N3  UNL     1     -10.461  -3.888  -8.967  1.00  0.00    -0.307 N 
ATOM     29  C26 UNL     1     -10.811  -4.333  -7.711  1.00  0.00    +0.245 C 
ATOM     30  O4  UNL     1     -10.442  -5.383  -7.220  1.00  0.00    -0.270 OA
ATOM     31  H21 UNL     1      -9.830  -4.426  -9.546  1.00  0.00    +0.149 HD
ENDROOT
BRANCH   6  32
ATOM     32  O2  UNL     1     -12.400   0.822  -4.290  1.00  0.00    -0.381 OA
ATOM     33  H7  UNL     1     -12.144  -0.131  -4.331  1.00  0.00    +0.210 HD
ENDBRANCH   6  32
BRANCH   6  34
ATOM     34  C6  UNL     1     -14.111   2.246  -3.442  1.00  0.00    +0.195 C 
BRANCH  34  35
ATOM     35  O3  UNL     1     -13.410   3.233  -4.207  1.00  0.00    -0.392 OA
ATOM     36  H10 UNL     1     -13.604   4.114  -3.802  1.00  0.00    +0.210 HD
ENDBRANCH  34  35
ENDBRANCH   6  34
TORSDOF 3
ENDMDL
MODEL 9
REMARK VINA RESULT:    -5.320      2.677      6.219
REMARK INTER + INTRA:          -6.029
REMARK INTER:                  -5.942
REMARK INTRA:                  -0.088
REMARK UNBOUND:                -0.088
REMARK  Name = docking/ligands/Lestaurtinib.pdb
REMARK  4 active torsions:
REMARK  status: ('A' for Active; 'I' for Inactive)
REMARK    1  A    between atoms: C1_1  and  C2_2
REMARK    2  A    between atoms: C5_6  and  O2_7
REMARK    3  A    between atoms: C5_6  and  C6_8
REMARK    4  A    between atoms: C6_8  and  O3_9
REMARK                            x       y       z     vdW  Elec       q    Type
REMARK                         _______ _______ _______ _____ _____    ______ ____
ROOT
ATOM      1  C1  UNL     1     -12.726  -3.442  -9.624  1.00  0.00    +0.070 C 
ATOM      2  C2  UNL     1     -11.293  -3.627  -9.099  1.00  0.00    +0.178 C 
ATOM      3  O1  UNL     1     -11.054  -5.027  -9.476  1.00  0.00    -0.328 OA
ATOM      4  C3  UNL     1     -10.317  -5.661  -8.427  1.00  0.00    +0.226 C 
ATOM      5  C4  UNL     1     -10.793  -5.019  -7.136  1.00  0.00    +0.096 C 
ATOM      6  C5  UNL     1     -11.110  -3.570  -7.534  1.00  0.00    +0.141 C 
ATOM      7  N1  UNL     1      -8.894  -5.552  -8.715  1.00  0.00    -0.311 N 
ATOM      8  C7  UNL     1      -7.929  -6.493  -8.399  1.00  0.00    +0.052 A 
ATOM      9  C8  UNL     1      -8.016  -7.689  -7.662  1.00  0.00    +0.026 A 
ATOM     10  C9  UNL     1      -6.858  -8.458  -7.507  1.00  0.00    +0.002 A 
ATOM     11  C10 UNL     1      -5.650  -8.051  -8.064  1.00  0.00    +0.001 A 
ATOM     12  C11 UNL     1      -5.571  -6.861  -8.797  1.00  0.00    +0.010 A 
ATOM     13  C12 UNL     1      -6.721  -6.059  -8.980  1.00  0.00    +0.008 A 
ATOM     14  C13 UNL     1      -6.981  -4.822  -9.652  1.00  0.00    +0.022 A 
ATOM     15  C14 UNL     1      -6.310  -3.855 -10.418  1.00  0.00    +0.052 A 
ATOM     16  C15 UNL     1      -6.905  -2.655 -10.927  1.00  0.00    -0.008 A 
ATOM     17  C16 UNL     1      -8.251  -2.329 -10.684  1.00  0.00    +0.015 A 
ATOM     18  C17 UNL     1      -9.129  -1.236 -10.925  1.00  0.00    +0.008 A 
ATOM     19  C18 UNL     1      -8.958   0.010 -11.566  1.00  0.00    +0.010 A 
ATOM     20  C19 UNL     1      -9.991   0.948 -11.559  1.00  0.00    +0.001 A 
ATOM     21  C20 UNL     1     -11.184   0.666 -10.911  1.00  0.00    +0.002 A 
ATOM     22  C21 UNL     1     -11.388  -0.564 -10.275  1.00  0.00    +0.026 A 
ATOM     23  C22 UNL     1     -10.365  -1.528 -10.307  1.00  0.00    +0.053 A 
ATOM     24  N2  UNL     1     -10.278  -2.825  -9.811  1.00  0.00    -0.307 N 
ATOM     25  C23 UNL     1      -8.984  -3.252  -9.973  1.00  0.00    +0.077 A 
ATOM     26  C24 UNL     1      -8.319  -4.551  -9.435  1.00  0.00    +0.077 A 
ATOM     27  C25 UNL     1      -5.860  -1.867 -11.665  1.00  0.00    +0.141 C 
ATOM     28  N3  UNL     1      -4.695  -2.704 -11.572  1.00  0.00    -0.307 N 
ATOM     29  C26 UNL     1      -4.900  -3.850 -10.833  1.00  0.00    +0.245 C 
ATOM     30  O4  UNL     1      -4.044  -4.678 -10.588  1.00  0.00    -0.270 OA
ATOM     31  H21 UNL     1      -3.777  -2.480 -11.930  1.00  0.00    +0.149 HD
ENDROOT
BRANCH   6  32
ATOM     32  O2  UNL     1      -9.975  -2.774  -7.105  1.00  0.00    -0.381 OA
ATOM     33  H7  UNL     1      -9.647  -3.190  -6.271  1.00  0.00    +0.210 HD
ENDBRANCH   6  32
BRANCH   6  34
ATOM     34  C6  UNL     1     -12.315  -3.023  -6.744  1.00  0.00    +0.195 C 
BRANCH  34  35
ATOM     35  O3  UNL     1     -11.938  -2.808  -5.379  1.00  0.00    -0.392 OA
ATOM     36  H10 UNL     1     -11.399  -3.586  -5.094  1.00  0.00    +0.210 HD
ENDBRANCH  34  35
ENDBRANCH   6  34
TORSDOF 3
ENDMDL
