MODEL 1
REMARK VINA RESULT:    -5.856      0.000      0.000
REMARK INTER + INTRA:          -8.232
REMARK INTER:                  -7.214
REMARK INTRA:                  -1.017
REMARK UNBOUND:                -1.178
REMARK  Name = docking/ligands/PERK_CHEMBL1667910.pdb
REMARK  4 active torsions:
REMARK  status: ('A' for Active; 'I' for Inactive)
REMARK    1  A    between atoms: O1_1  and  C1_2
REMARK    2  A    between atoms: C7_8  and  N1_9
REMARK    3  A    between atoms: N1_9  and  C8_10
REMARK    4  A    between atoms: C9_11  and  C10_12
REMARK                            x       y       z     vdW  Elec       q    Type
REMARK                         _______ _______ _______ _____ _____    ______ ____
ROOT
ATOM      1  C8  UNL     1      -3.488  -7.620  -8.619  1.00  0.00    +0.089 A 
ATOM      2  C9  UNL     1      -2.126  -7.441  -8.806  1.00  0.00    +0.194 A 
ATOM      3  O2  UNL     1      -1.449  -7.878  -7.697  1.00  0.00    -0.448 OA
ATOM      4  C14 UNL     1      -2.377  -8.284  -6.792  1.00  0.00    +0.156 A 
ATOM      5  C15 UNL     1      -2.117  -8.776  -5.523  1.00  0.00    +0.157 A 
ATOM      6  N4  UNL     1      -3.164  -9.110  -4.727  1.00  0.00    -0.260 NA
ATOM      7  C16 UNL     1      -4.423  -8.938  -5.198  1.00  0.00    +0.111 A 
ATOM      8  C17 UNL     1      -4.741  -8.451  -6.461  1.00  0.00    +0.033 A 
ATOM      9  C18 UNL     1      -3.662  -8.129  -7.299  1.00  0.00    +0.045 A 
ENDROOT
BRANCH   2  10
ATOM     10  C10 UNL     1      -1.322  -6.916  -9.901  1.00  0.00    +0.198 A 
ATOM     11  N2  UNL     1      -0.273  -7.645 -10.325  1.00  0.00    -0.233 NA
ATOM     12  C11 UNL     1       0.438  -7.119 -11.337  1.00  0.00    +0.115 A 
ATOM     13  C12 UNL     1       0.143  -5.912 -11.927  1.00  0.00    +0.039 A 
ATOM     14  C13 UNL     1      -0.947  -5.249 -11.416  1.00  0.00    +0.115 A 
ATOM     15  N3  UNL     1      -1.701  -5.720 -10.404  1.00  0.00    -0.233 NA
ENDBRANCH   2  10
BRANCH   1  16
ATOM     16  N1  UNL     1      -4.443  -7.284  -9.530  1.00  0.00    -0.311 N 
ATOM     17  H6  UNL     1      -4.978  -8.068  -9.917  1.00  0.00    +0.152 HD
BRANCH  16  24
ATOM     18  C1  UNL     1      -7.301  -2.416 -10.165  1.00  0.00    +0.125 A 
ATOM     19  C2  UNL     1      -6.908  -1.530 -11.166  1.00  0.00    +0.046 A 
ATOM     20  C3  UNL     1      -5.847  -1.857 -12.002  1.00  0.00    +0.004 A 
ATOM     21  C4  UNL     1      -5.182  -3.071 -11.833  1.00  0.00    +0.009 A 
ATOM     22  C5  UNL     1      -5.558  -3.968 -10.818  1.00  0.00    -0.013 A 
ATOM     23  C6  UNL     1      -4.868  -5.184 -10.655  1.00  0.00    +0.032 A 
ATOM     24  C7  UNL     1      -5.201  -6.096  -9.646  1.00  0.00    +0.032 A 
ATOM     25  C19 UNL     1      -6.244  -5.767  -8.782  1.00  0.00    +0.024 A 
ATOM     26  C20 UNL     1      -6.947  -4.566  -8.929  1.00  0.00    +0.014 A 
ATOM     27  C21 UNL     1      -6.630  -3.645  -9.954  1.00  0.00    +0.024 A 
BRANCH  18  28
ATOM     28  O1  UNL     1      -8.376  -2.012  -9.419  1.00  0.00    -0.506 OA
ATOM     29  H1  UNL     1      -8.472  -1.051  -9.506  1.00  0.00    +0.292 HD
ENDBRANCH  18  28
ENDBRANCH  16  24
ENDBRANCH   1  16
TORSDOF 4
ENDMDL
MODEL 2
REMARK VINA RESULT:    -5.809      2.461      3.829
REMARK INTER + INTRA:          -8.176
REMARK INTER:                  -7.015
REMARK INTRA:                  -1.161
REMARK UNBOUND:                -1.178
REMARK  Name = docking/ligands/PERK_CHEMBL1667910.pdb
REMARK  4 active torsions:
REMARK  status: ('A' for Active; 'I' for Inactive)
REMARK    1  A    between atoms: O1_1  and  C1_2
REMARK    2  A    between atoms: C7_8  and  N1_9
REMARK    3  A    between atoms: N1_9  and  C8_10
REMARK    4  A    between atoms: C9_11  and  C10_12
REMARK                            x       y       z     vdW  Elec       q    Type
REMARK                         _______ _______ _______ _____ _____    ______ ____
ROOT
ATOM      1  C8  UNL     1      -0.222  -8.252  -7.768  1.00  0.00    +0.089 A 
ATOM      2  C9  UNL     1       1.159  -8.141  -7.819  1.00  0.00    +0.194 A 
ATOM      3  O2  UNL     1       1.668  -8.151  -6.546  1.00  0.00    -0.448 OA
ATOM      4  C14 UNL     1       0.613  -8.216  -5.691  1.00  0.00    +0.156 A 
ATOM      5  C15 UNL     1       0.685  -8.223  -4.308  1.00  0.00    +0.157 A 
ATOM      6  N4  UNL     1      -0.469  -8.261  -3.596  1.00  0.00    -0.260 NA
ATOM      7  C16 UNL     1      -1.647  -8.277  -4.264  1.00  0.00    +0.111 A 
ATOM      8  C17 UNL     1      -1.778  -8.273  -5.648  1.00  0.00    +0.033 A 
ATOM      9  C18 UNL     1      -0.587  -8.261  -6.390  1.00  0.00    +0.045 A 
ENDROOT
BRANCH   2  10
ATOM     10  C10 UNL     1       2.119  -8.033  -8.908  1.00  0.00    +0.198 A 
ATOM     11  N2  UNL     1       1.647  -7.988 -10.168  1.00  0.00    -0.233 NA
ATOM     12  C11 UNL     1       2.571  -7.889 -11.139  1.00  0.00    +0.115 A 
ATOM     13  C12 UNL     1       3.925  -7.835 -10.899  1.00  0.00    +0.039 A 
ATOM     14  C13 UNL     1       4.298  -7.890  -9.577  1.00  0.00    +0.115 A 
ATOM     15  N3  UNL     1       3.424  -7.991  -8.558  1.00  0.00    -0.233 NA
ENDBRANCH   2  10
BRANCH   1  16
ATOM     16  N1  UNL     1      -1.036  -8.269  -8.860  1.00  0.00    -0.311 N 
ATOM     17  H6  UNL     1      -1.417  -9.187  -9.112  1.00  0.00    +0.152 HD
BRANCH  16  24
ATOM     18  C1  UNL     1      -4.626  -4.325 -10.816  1.00  0.00    +0.125 A 
ATOM     19  C2  UNL     1      -5.937  -4.314 -10.343  1.00  0.00    +0.046 A 
ATOM     20  C3  UNL     1      -6.337  -5.245  -9.392  1.00  0.00    +0.004 A 
ATOM     21  C4  UNL     1      -5.424  -6.185  -8.917  1.00  0.00    +0.009 A 
ATOM     22  C5  UNL     1      -4.102  -6.217  -9.394  1.00  0.00    -0.013 A 
ATOM     23  C6  UNL     1      -3.196  -7.180  -8.911  1.00  0.00    +0.032 A 
ATOM     24  C7  UNL     1      -1.877  -7.256  -9.375  1.00  0.00    +0.032 A 
ATOM     25  C19 UNL     1      -1.471  -6.347 -10.350  1.00  0.00    +0.024 A 
ATOM     26  C20 UNL     1      -2.353  -5.378 -10.841  1.00  0.00    +0.014 A 
ATOM     27  C21 UNL     1      -3.682  -5.282 -10.369  1.00  0.00    +0.024 A 
BRANCH  18  28
ATOM     28  O1  UNL     1      -4.327  -3.346 -11.726  1.00  0.00    -0.506 OA
ATOM     29  H1  UNL     1      -4.189  -3.758 -12.592  1.00  0.00    +0.292 HD
ENDBRANCH  18  28
ENDBRANCH  16  24
ENDBRANCH   1  16
TORSDOF 4
ENDMDL
MODEL 3
REMARK VINA RESULT:    -5.792      2.404      5.365
REMARK INTER + INTRA:          -8.155
REMARK INTER:                  -6.985
REMARK INTRA:                  -1.170
REMARK UNBOUND:                -1.178
REMARK  Name = docking/ligands/PERK_CHEMBL1667910.pdb
REMARK  4 active torsions:
REMARK  status: ('A' for Active; 'I' for Inactive)
REMARK    1  A    between atoms: O1_1  and  C1_2
REMARK    2  A    between atoms: C7_8  and  N1_9
REMARK    3  A    between atoms: N1_9  and  C8_10
REMARK    4  A    between atoms: C9_11  and  C10_12
REMARK                            x       y       z     vdW  Elec       q    Type
REMARK                         _______ _______ _______ _____ _____    ______ ____
ROOT
ATOM      1  C8  UNL     1      -0.147  -8.205  -8.360  1.00  0.00    +0.089 A 
ATOM      2  C9  UNL     1       0.086  -8.187  -6.993  1.00  0.00    +0.194 A 
ATOM      3  O2  UNL     1       1.436  -8.153  -6.758  1.00  0.00    -0.448 OA
ATOM      4  C14 UNL     1       2.057  -8.200  -7.966  1.00  0.00    +0.156 A 
ATOM      5  C15 UNL     1       3.426  -8.210  -8.178  1.00  0.00    +0.157 A 
ATOM      6  N4  UNL     1       3.886  -8.290  -9.452  1.00  0.00    -0.260 NA
ATOM      7  C16 UNL     1       2.991  -8.371 -10.466  1.00  0.00    +0.111 A 
ATOM      8  C17 UNL     1       1.610  -8.363 -10.310  1.00  0.00    +0.033 A 
ATOM      9  C18 UNL     1       1.127  -8.253  -8.997  1.00  0.00    +0.045 A 
ENDROOT
BRANCH   2  10
ATOM     10  C10 UNL     1      -0.783  -8.188  -5.825  1.00  0.00    +0.198 A 
ATOM     11  N2  UNL     1      -2.068  -8.553  -5.990  1.00  0.00    -0.233 NA
ATOM     12  C11 UNL     1      -2.832  -8.537  -4.884  1.00  0.00    +0.115 A 
ATOM     13  C12 UNL     1      -2.363  -8.176  -3.642  1.00  0.00    +0.039 A 
ATOM     14  C13 UNL     1      -1.037  -7.819  -3.586  1.00  0.00    +0.115 A 
ATOM     15  N3  UNL     1      -0.219  -7.812  -4.655  1.00  0.00    -0.233 NA
ENDBRANCH   2  10
BRANCH   1  16
ATOM     16  N1  UNL     1      -1.382  -8.244  -8.931  1.00  0.00    -0.311 N 
ATOM     17  H6  UNL     1      -2.001  -8.988  -8.593  1.00  0.00    +0.152 HD
BRANCH  16  24
ATOM     18  C1  UNL     1      -4.734  -4.139 -10.974  1.00  0.00    +0.125 A 
ATOM     19  C2  UNL     1      -6.043  -4.041 -10.504  1.00  0.00    +0.046 A 
ATOM     20  C3  UNL     1      -6.497  -4.927  -9.534  1.00  0.00    +0.004 A 
ATOM     21  C4  UNL     1      -5.641  -5.909  -9.038  1.00  0.00    +0.009 A 
ATOM     22  C5  UNL     1      -4.323  -6.028  -9.513  1.00  0.00    -0.013 A 
ATOM     23  C6  UNL     1      -3.475  -7.032  -9.008  1.00  0.00    +0.032 A 
ATOM     24  C7  UNL     1      -2.162  -7.194  -9.468  1.00  0.00    +0.032 A 
ATOM     25  C19 UNL     1      -1.704  -6.331 -10.462  1.00  0.00    +0.024 A 
ATOM     26  C20 UNL     1      -2.528  -5.323 -10.974  1.00  0.00    +0.014 A 
ATOM     27  C21 UNL     1      -3.849  -5.140 -10.506  1.00  0.00    +0.024 A 
BRANCH  18  28
ATOM     28  O1  UNL     1      -4.379  -3.198 -11.905  1.00  0.00    -0.506 OA
ATOM     29  H1  UNL     1      -3.700  -2.622 -11.521  1.00  0.00    +0.292 HD
ENDBRANCH  18  28
ENDBRANCH  16  24
ENDBRANCH   1  16
TORSDOF 4
ENDMDL
MODEL 4
REMARK VINA RESULT:    -5.733      5.807      8.938
REMARK INTER + INTRA:          -8.084
REMARK INTER:                  -6.870
REMARK INTRA:                  -1.214
REMARK UNBOUND:                -1.178
REMARK  Name = docking/ligands/PERK_CHEMBL1667910.pdb
REMARK  4 active torsions:
REMARK  status: ('A' for Active; 'I' for Inactive)
REMARK    1  A    between atoms: O1_1  and  C1_2
REMARK    2  A    between atoms: C7_8  and  N1_9
REMARK    3  A    between atoms: N1_9  and  C8_10
REMARK    4  A    between atoms: C9_11  and  C10_12
REMARK                            x       y       z     vdW  Elec       q    Type
REMARK                         _______ _______ _______ _____ _____    ______ ____
ROOT
ATOM      1  C8  UNL     1     -11.727  -4.673  -5.841  1.00  0.00    +0.089 A 
ATOM      2  C9  UNL     1     -11.397  -5.406  -4.711  1.00  0.00    +0.194 A 
ATOM      3  O2  UNL     1     -11.861  -4.761  -3.594  1.00  0.00    -0.448 OA
ATOM      4  C14 UNL     1     -12.437  -3.602  -4.008  1.00  0.00    +0.156 A 
ATOM      5  C15 UNL     1     -13.011  -2.641  -3.192  1.00  0.00    +0.157 A 
ATOM      6  N4  UNL     1     -13.518  -1.519  -3.764  1.00  0.00    -0.260 NA
ATOM      7  C16 UNL     1     -13.430  -1.376  -5.108  1.00  0.00    +0.111 A 
ATOM      8  C17 UNL     1     -12.868  -2.307  -5.973  1.00  0.00    +0.033 A 
ATOM      9  C18 UNL     1     -12.366  -3.482  -5.391  1.00  0.00    +0.045 A 
ENDROOT
BRANCH   2  10
ATOM     10  C10 UNL     1     -10.700  -6.666  -4.498  1.00  0.00    +0.198 A 
ATOM     11  N2  UNL     1     -10.803  -7.617  -5.446  1.00  0.00    -0.233 NA
ATOM     12  C11 UNL     1     -10.142  -8.762  -5.205  1.00  0.00    +0.115 A 
ATOM     13  C12 UNL     1      -9.397  -8.986  -4.070  1.00  0.00    +0.039 A 
ATOM     14  C13 UNL     1      -9.360  -7.950  -3.167  1.00  0.00    +0.115 A 
ATOM     15  N3  UNL     1     -10.000  -6.779  -3.348  1.00  0.00    -0.233 NA
ENDBRANCH   2  10
BRANCH   1  16
ATOM     16  N1  UNL     1     -11.408  -5.034  -7.115  1.00  0.00    -0.311 N 
ATOM     17  H6  UNL     1     -12.199  -5.106  -7.764  1.00  0.00    +0.152 HD
BRANCH  16  24
ATOM     18  C1  UNL     1      -6.726  -3.868 -10.111  1.00  0.00    +0.125 A 
ATOM     19  C2  UNL     1      -6.480  -2.550 -10.491  1.00  0.00    +0.046 A 
ATOM     20  C3  UNL     1      -7.365  -1.546 -10.116  1.00  0.00    +0.004 A 
ATOM     21  C4  UNL     1      -8.493  -1.864  -9.361  1.00  0.00    +0.009 A 
ATOM     22  C5  UNL     1      -8.761  -3.191  -8.982  1.00  0.00    -0.013 A 
ATOM     23  C6  UNL     1      -9.910  -3.495  -8.229  1.00  0.00    +0.032 A 
ATOM     24  C7  UNL     1     -10.221  -4.806  -7.847  1.00  0.00    +0.032 A 
ATOM     25  C19 UNL     1      -9.357  -5.826  -8.242  1.00  0.00    +0.024 A 
ATOM     26  C20 UNL     1      -8.206  -5.546  -8.987  1.00  0.00    +0.014 A 
ATOM     27  C21 UNL     1      -7.874  -4.225  -9.364  1.00  0.00    +0.024 A 
BRANCH  18  28
ATOM     28  O1  UNL     1      -5.776  -4.774 -10.504  1.00  0.00    -0.506 OA
ATOM     29  H1  UNL     1      -6.157  -5.348 -11.186  1.00  0.00    +0.292 HD
ENDBRANCH  18  28
ENDBRANCH  16  24
ENDBRANCH   1  16
TORSDOF 4
ENDMDL
MODEL 5
REMARK VINA RESULT:    -5.548      6.771      9.926
REMARK INTER + INTRA:          -7.861
REMARK INTER:                  -6.703
REMARK INTRA:                  -1.158
REMARK UNBOUND:                -1.178
REMARK  Name = docking/ligands/PERK_CHEMBL1667910.pdb
REMARK  4 active torsions:
REMARK  status: ('A' for Active; 'I' for Inactive)
REMARK    1  A    between atoms: O1_1  and  C1_2
REMARK    2  A    between atoms: C7_8  and  N1_9
REMARK    3  A    between atoms: N1_9  and  C8_10
REMARK    4  A    between atoms: C9_11  and  C10_12
REMARK                            x       y       z     vdW  Elec       q    Type
REMARK                         _______ _______ _______ _____ _____    ______ ____
ROOT
ATOM      1  C8  UNL     1     -12.205  -3.584  -5.936  1.00  0.00    +0.089 A 
ATOM      2  C9  UNL     1     -12.556  -2.666  -4.957  1.00  0.00    +0.194 A 
ATOM      3  O2  UNL     1     -12.306  -3.198  -3.718  1.00  0.00    -0.448 OA
ATOM      4  C14 UNL     1     -11.847  -4.463  -3.908  1.00  0.00    +0.156 A 
ATOM      5  C15 UNL     1     -11.498  -5.361  -2.912  1.00  0.00    +0.157 A 
ATOM      6  N4  UNL     1     -11.085  -6.603  -3.270  1.00  0.00    -0.260 NA
ATOM      7  C16 UNL     1     -11.043  -6.922  -4.586  1.00  0.00    +0.111 A 
ATOM      8  C17 UNL     1     -11.380  -6.062  -5.625  1.00  0.00    +0.033 A 
ATOM      9  C18 UNL     1     -11.782  -4.767  -5.262  1.00  0.00    +0.045 A 
ENDROOT
BRANCH   2  10
ATOM     10  C10 UNL     1     -13.099  -1.316  -4.994  1.00  0.00    +0.198 A 
ATOM     11  N2  UNL     1     -14.042  -1.036  -5.913  1.00  0.00    -0.233 NA
ATOM     12  C11 UNL     1     -14.513   0.222  -5.909  1.00  0.00    +0.115 A 
ATOM     13  C12 UNL     1     -14.081   1.193  -5.034  1.00  0.00    +0.039 A 
ATOM     14  C13 UNL     1     -13.115   0.801  -4.139  1.00  0.00    +0.115 A 
ATOM     15  N3  UNL     1     -12.601  -0.443  -4.091  1.00  0.00    -0.233 NA
ENDBRANCH   2  10
BRANCH   1  16
ATOM     16  N1  UNL     1     -12.332  -3.371  -7.274  1.00  0.00    -0.311 N 
ATOM     17  H6  UNL     1     -13.292  -3.240  -7.611  1.00  0.00    +0.152 HD
BRANCH  16  24
ATOM     18  C1  UNL     1      -8.512  -1.078 -10.796  1.00  0.00    +0.125 A 
ATOM     19  C2  UNL     1      -7.207  -1.570 -10.788  1.00  0.00    +0.046 A 
ATOM     20  C3  UNL     1      -6.869  -2.619  -9.942  1.00  0.00    +0.004 A 
ATOM     21  C4  UNL     1      -7.838  -3.174  -9.107  1.00  0.00    +0.009 A 
ATOM     22  C5  UNL     1      -9.154  -2.679  -9.094  1.00  0.00    -0.013 A 
ATOM     23  C6  UNL     1     -10.116  -3.245  -8.237  1.00  0.00    +0.032 A 
ATOM     24  C7  UNL     1     -11.432  -2.768  -8.182  1.00  0.00    +0.032 A 
ATOM     25  C19 UNL     1     -11.776  -1.697  -9.004  1.00  0.00    +0.024 A 
ATOM     26  C20 UNL     1     -10.837  -1.122  -9.868  1.00  0.00    +0.014 A 
ATOM     27  C21 UNL     1      -9.511  -1.605  -9.943  1.00  0.00    +0.024 A 
BRANCH  18  28
ATOM     28  O1  UNL     1      -8.746  -0.065 -11.688  1.00  0.00    -0.506 OA
ATOM     29  H1  UNL     1      -9.248  -0.420 -12.437  1.00  0.00    +0.292 HD
ENDBRANCH  18  28
ENDBRANCH  16  24
ENDBRANCH   1  16
TORSDOF 4
ENDMDL
MODEL 6
REMARK VINA RESULT:    -5.541      1.767      2.265
REMARK INTER + INTRA:          -7.852
REMARK INTER:                  -6.678
REMARK INTRA:                  -1.174
REMARK UNBOUND:                -1.178
REMARK  Name = docking/ligands/PERK_CHEMBL1667910.pdb
REMARK  4 active torsions:
REMARK  status: ('A' for Active; 'I' for Inactive)
REMARK    1  A    between atoms: O1_1  and  C1_2
REMARK    2  A    between atoms: C7_8  and  N1_9
REMARK    3  A    between atoms: N1_9  and  C8_10
REMARK    4  A    between atoms: C9_11  and  C10_12
REMARK                            x       y       z     vdW  Elec       q    Type
REMARK                         _______ _______ _______ _____ _____    ______ ____
ROOT
ATOM      1  C8  UNL     1      -4.766  -7.792  -8.018  1.00  0.00    +0.089 A 
ATOM      2  C9  UNL     1      -3.434  -7.427  -8.148  1.00  0.00    +0.194 A 
ATOM      3  O2  UNL     1      -2.733  -7.847  -7.048  1.00  0.00    -0.448 OA
ATOM      4  C14 UNL     1      -3.622  -8.430  -6.202  1.00  0.00    +0.156 A 
ATOM      5  C15 UNL     1      -3.331  -8.970  -4.960  1.00  0.00    +0.157 A 
ATOM      6  N4  UNL     1      -4.345  -9.491  -4.222  1.00  0.00    -0.260 NA
ATOM      7  C16 UNL     1      -5.603  -9.451  -4.722  1.00  0.00    +0.111 A 
ATOM      8  C17 UNL     1      -5.951  -8.924  -5.961  1.00  0.00    +0.033 A 
ATOM      9  C18 UNL     1      -4.904  -8.409  -6.740  1.00  0.00    +0.045 A 
ENDROOT
BRANCH   2  10
ATOM     10  C10 UNL     1      -2.680  -6.729  -9.179  1.00  0.00    +0.198 A 
ATOM     11  N2  UNL     1      -1.562  -7.310  -9.652  1.00  0.00    -0.233 NA
ATOM     12  C11 UNL     1      -0.899  -6.628 -10.601  1.00  0.00    +0.115 A 
ATOM     13  C12 UNL     1      -1.309  -5.407 -11.086  1.00  0.00    +0.039 A 
ATOM     14  C13 UNL     1      -2.462  -4.903 -10.534  1.00  0.00    +0.115 A 
ATOM     15  N3  UNL     1      -3.171  -5.534  -9.579  1.00  0.00    -0.233 NA
ENDBRANCH   2  10
BRANCH   1  16
ATOM     16  N1  UNL     1      -5.734  -7.521  -8.936  1.00  0.00    -0.311 N 
ATOM     17  H6  UNL     1      -5.960  -8.288  -9.578  1.00  0.00    +0.152 HD
BRANCH  16  24
ATOM     18  C1  UNL     1      -9.989  -3.772  -8.618  1.00  0.00    +0.125 A 
ATOM     19  C2  UNL     1      -9.729  -2.432  -8.902  1.00  0.00    +0.046 A 
ATOM     20  C3  UNL     1      -8.449  -2.040  -9.277  1.00  0.00    +0.004 A 
ATOM     21  C4  UNL     1      -7.433  -2.991  -9.367  1.00  0.00    +0.009 A 
ATOM     22  C5  UNL     1      -7.677  -4.343  -9.071  1.00  0.00    -0.013 A 
ATOM     23  C6  UNL     1      -6.637  -5.287  -9.157  1.00  0.00    +0.032 A 
ATOM     24  C7  UNL     1      -6.836  -6.639  -8.853  1.00  0.00    +0.032 A 
ATOM     25  C19 UNL     1      -8.107  -7.040  -8.446  1.00  0.00    +0.024 A 
ATOM     26  C20 UNL     1      -9.158  -6.120  -8.359  1.00  0.00    +0.014 A 
ATOM     27  C21 UNL     1      -8.972  -4.756  -8.678  1.00  0.00    +0.024 A 
BRANCH  18  28
ATOM     28  O1  UNL     1     -11.288  -4.056  -8.290  1.00  0.00    -0.506 OA
ATOM     29  H1  UNL     1     -11.712  -4.490  -9.045  1.00  0.00    +0.292 HD
ENDBRANCH  18  28
ENDBRANCH  16  24
ENDBRANCH   1  16
TORSDOF 4
ENDMDL
MODEL 7
REMARK VINA RESULT:    -5.521      7.061     10.561
REMARK INTER + INTRA:          -7.829
REMARK INTER:                  -6.604
REMARK INTRA:                  -1.225
REMARK UNBOUND:                -1.178
REMARK  Name = docking/ligands/PERK_CHEMBL1667910.pdb
REMARK  4 active torsions:
REMARK  status: ('A' for Active; 'I' for Inactive)
REMARK    1  A    between atoms: O1_1  and  C1_2
REMARK    2  A    between atoms: C7_8  and  N1_9
REMARK    3  A    between atoms: N1_9  and  C8_10
REMARK    4  A    between atoms: C9_11  and  C10_12
REMARK                            x       y       z     vdW  Elec       q    Type
REMARK                         _______ _______ _______ _____ _____    ______ ____
ROOT
ATOM      1  C8  UNL     1     -13.035  -2.364  -5.720  1.00  0.00    +0.089 A 
ATOM      2  C9  UNL     1     -12.666  -2.941  -4.514  1.00  0.00    +0.194 A 
ATOM      3  O2  UNL     1     -13.103  -2.158  -3.477  1.00  0.00    -0.448 OA
ATOM      4  C14 UNL     1     -13.701  -1.065  -4.022  1.00  0.00    +0.156 A 
ATOM      5  C15 UNL     1     -14.259  -0.009  -3.321  1.00  0.00    +0.157 A 
ATOM      6  N4  UNL     1     -14.792   1.026  -4.019  1.00  0.00    -0.260 NA
ATOM      7  C16 UNL     1     -14.745   0.993  -5.372  1.00  0.00    +0.111 A 
ATOM      8  C17 UNL     1     -14.200  -0.041  -6.125  1.00  0.00    +0.033 A 
ATOM      9  C18 UNL     1     -13.671  -1.126  -5.410  1.00  0.00    +0.045 A 
ENDROOT
BRANCH   2  10
ATOM     10  C10 UNL     1     -11.952  -4.159  -4.160  1.00  0.00    +0.198 A 
ATOM     11  N2  UNL     1     -11.485  -4.279  -2.903  1.00  0.00    -0.233 NA
ATOM     12  C11 UNL     1     -10.832  -5.420  -2.624  1.00  0.00    +0.115 A 
ATOM     13  C12 UNL     1     -10.632  -6.426  -3.542  1.00  0.00    +0.039 A 
ATOM     14  C13 UNL     1     -11.148  -6.200  -4.796  1.00  0.00    +0.115 A 
ATOM     15  N3  UNL     1     -11.811  -5.079  -5.140  1.00  0.00    -0.233 NA
ENDBRANCH   2  10
BRANCH   1  16
ATOM     16  N1  UNL     1     -12.751  -2.886  -6.945  1.00  0.00    -0.311 N 
ATOM     17  H6  UNL     1     -13.532  -3.350  -7.418  1.00  0.00    +0.152 HD
BRANCH  16  24
ATOM     18  C1  UNL     1      -8.747  -1.329 -10.660  1.00  0.00    +0.125 A 
ATOM     19  C2  UNL     1      -7.477  -1.895 -10.558  1.00  0.00    +0.046 A 
ATOM     20  C3  UNL     1      -7.217  -2.839  -9.572  1.00  0.00    +0.004 A 
ATOM     21  C4  UNL     1      -8.230  -3.215  -8.691  1.00  0.00    +0.009 A 
ATOM     22  C5  UNL     1      -9.511  -2.643  -8.773  1.00  0.00    -0.013 A 
ATOM     23  C6  UNL     1     -10.518  -3.027  -7.868  1.00  0.00    +0.032 A 
ATOM     24  C7  UNL     1     -11.802  -2.468  -7.906  1.00  0.00    +0.032 A 
ATOM     25  C19 UNL     1     -12.067  -1.498  -8.871  1.00  0.00    +0.024 A 
ATOM     26  C20 UNL     1     -11.082  -1.105  -9.784  1.00  0.00    +0.014 A 
ATOM     27  C21 UNL     1      -9.788  -1.674  -9.765  1.00  0.00    +0.024 A 
BRANCH  18  28
ATOM     28  O1  UNL     1      -8.905  -0.434 -11.685  1.00  0.00    -0.506 OA
ATOM     29  H1  UNL     1      -9.493   0.277 -11.390  1.00  0.00    +0.292 HD
ENDBRANCH  18  28
ENDBRANCH  16  24
ENDBRANCH   1  16
TORSDOF 4
ENDMDL
MODEL 8
REMARK VINA RESULT:    -5.491      3.034      6.261
REMARK INTER + INTRA:          -7.792
REMARK INTER:                  -6.658
REMARK INTRA:                  -1.134
REMARK UNBOUND:                -1.178
REMARK  Name = docking/ligands/PERK_CHEMBL1667910.pdb
REMARK  4 active torsions:
REMARK  status: ('A' for Active; 'I' for Inactive)
REMARK    1  A    between atoms: O1_1  and  C1_2
REMARK    2  A    between atoms: C7_8  and  N1_9
REMARK    3  A    between atoms: N1_9  and  C8_10
REMARK    4  A    between atoms: C9_11  and  C10_12
REMARK                            x       y       z     vdW  Elec       q    Type
REMARK                         _______ _______ _______ _____ _____    ______ ____
ROOT
ATOM      1  C8  UNL     1      -2.150  -9.012  -4.967  1.00  0.00    +0.089 A 
ATOM      2  C9  UNL     1      -2.706  -9.046  -3.697  1.00  0.00    +0.194 A 
ATOM      3  O2  UNL     1      -1.718  -8.887  -2.759  1.00  0.00    -0.448 OA
ATOM      4  C14 UNL     1      -0.538  -8.802  -3.427  1.00  0.00    +0.156 A 
ATOM      5  C15 UNL     1       0.715  -8.659  -2.853  1.00  0.00    +0.157 A 
ATOM      6  N4  UNL     1       1.802  -8.622  -3.664  1.00  0.00    -0.260 NA
ATOM      7  C16 UNL     1       1.623  -8.738  -5.001  1.00  0.00    +0.111 A 
ATOM      8  C17 UNL     1       0.392  -8.881  -5.630  1.00  0.00    +0.033 A 
ATOM      9  C18 UNL     1      -0.739  -8.894  -4.799  1.00  0.00    +0.045 A 
ENDROOT
BRANCH   2  10
ATOM     10  C10 UNL     1      -4.065  -9.201  -3.198  1.00  0.00    +0.198 A 
ATOM     11  N2  UNL     1      -4.309  -8.887  -1.913  1.00  0.00    -0.233 NA
ATOM     12  C11 UNL     1      -5.578  -9.047  -1.499  1.00  0.00    +0.115 A 
ATOM     13  C12 UNL     1      -6.591  -9.503  -2.311  1.00  0.00    +0.039 A 
ATOM     14  C13 UNL     1      -6.232  -9.796  -3.605  1.00  0.00    +0.115 A 
ATOM     15  N3  UNL     1      -4.980  -9.659  -4.081  1.00  0.00    -0.233 NA
ENDBRANCH   2  10
BRANCH   1  16
ATOM     16  N1  UNL     1      -2.857  -9.146  -6.123  1.00  0.00    -0.311 N 
ATOM     17  H6  UNL     1      -3.589  -9.865  -6.111  1.00  0.00    +0.152 HD
BRANCH  16  24
ATOM     18  C1  UNL     1      -3.821  -5.263 -10.154  1.00  0.00    +0.125 A 
ATOM     19  C2  UNL     1      -2.791  -4.938 -11.036  1.00  0.00    +0.046 A 
ATOM     20  C3  UNL     1      -1.562  -5.578 -10.931  1.00  0.00    +0.004 A 
ATOM     21  C4  UNL     1      -1.367  -6.543  -9.944  1.00  0.00    +0.009 A 
ATOM     22  C5  UNL     1      -2.392  -6.872  -9.039  1.00  0.00    -0.013 A 
ATOM     23  C6  UNL     1      -2.173  -7.841  -8.042  1.00  0.00    +0.032 A 
ATOM     24  C7  UNL     1      -3.163  -8.183  -7.111  1.00  0.00    +0.032 A 
ATOM     25  C19 UNL     1      -4.390  -7.527  -7.187  1.00  0.00    +0.024 A 
ATOM     26  C20 UNL     1      -4.630  -6.563  -8.173  1.00  0.00    +0.014 A 
ATOM     27  C21 UNL     1      -3.645  -6.222  -9.127  1.00  0.00    +0.024 A 
BRANCH  18  28
ATOM     28  O1  UNL     1      -4.999  -4.597 -10.364  1.00  0.00    -0.506 OA
ATOM     29  H1  UNL     1      -5.733  -5.168 -10.091  1.00  0.00    +0.292 HD
ENDBRANCH  18  28
ENDBRANCH  16  24
ENDBRANCH   1  16
TORSDOF 4
ENDMDL
MODEL 9
REMARK VINA RESULT:    -5.401      2.668      6.790
REMARK INTER + INTRA:          -7.684
REMARK INTER:                  -6.506
REMARK INTRA:                  -1.178
REMARK UNBOUND:                -1.178
REMARK  Name = docking/ligands/PERK_CHEMBL1667910.pdb
REMARK  4 active torsions:
REMARK  status: ('A' for Active; 'I' for Inactive)
REMARK    1  A    between atoms: O1_1  and  C1_2
REMARK    2  A    between atoms: C7_8  and  N1_9
REMARK    3  A    between atoms: N1_9  and  C8_10
REMARK    4  A    between atoms: C9_11  and  C10_12
REMARK                            x       y       z     vdW  Elec       q    Type
REMARK                         _______ _______ _______ _____ _____    ______ ____
ROOT
ATOM      1  C8  UNL     1      -2.388  -7.587  -8.587  1.00  0.00    +0.089 A 
ATOM      2  C9  UNL     1      -1.450  -7.153  -9.511  1.00  0.00    +0.194 A 
ATOM      3  O2  UNL     1      -1.989  -6.151 -10.277  1.00  0.00    -0.448 OA
ATOM      4  C14 UNL     1      -3.277  -5.987  -9.875  1.00  0.00    +0.156 A 
ATOM      5  C15 UNL     1      -4.187  -5.089 -10.408  1.00  0.00    +0.157 A 
ATOM      6  N4  UNL     1      -5.450  -5.070  -9.912  1.00  0.00    -0.260 NA
ATOM      7  C16 UNL     1      -5.776  -5.939  -8.926  1.00  0.00    +0.111 A 
ATOM      8  C17 UNL     1      -4.904  -6.858  -8.353  1.00  0.00    +0.033 A 
ATOM      9  C18 UNL     1      -3.589  -6.864  -8.843  1.00  0.00    +0.045 A 
ENDROOT
BRANCH   2  10
ATOM     10  C10 UNL     1      -0.074  -7.530  -9.800  1.00  0.00    +0.198 A 
ATOM     11  N2  UNL     1       0.469  -7.115 -10.960  1.00  0.00    -0.233 NA
ATOM     12  C11 UNL     1       1.740  -7.490 -11.182  1.00  0.00    +0.115 A 
ATOM     13  C12 UNL     1       2.475  -8.250 -10.301  1.00  0.00    +0.039 A 
ATOM     14  C13 UNL     1       1.824  -8.622  -9.148  1.00  0.00    +0.115 A 
ATOM     15  N3  UNL     1       0.552  -8.282  -8.866  1.00  0.00    -0.233 NA
ENDBRANCH   2  10
BRANCH   1  16
ATOM     16  N1  UNL     1      -2.174  -8.577  -7.677  1.00  0.00    -0.311 N 
ATOM     17  H6  UNL     1      -1.519  -9.310  -7.969  1.00  0.00    +0.152 HD
BRANCH  16  24
ATOM     18  C1  UNL     1      -2.655  -8.448  -2.019  1.00  0.00    +0.125 A 
ATOM     19  C2  UNL     1      -3.839  -8.894  -1.433  1.00  0.00    +0.046 A 
ATOM     20  C3  UNL     1      -4.866  -9.379  -2.233  1.00  0.00    +0.004 A 
ATOM     21  C4  UNL     1      -4.706  -9.418  -3.618  1.00  0.00    +0.009 A 
ATOM     22  C5  UNL     1      -3.523  -8.960  -4.223  1.00  0.00    -0.013 A 
ATOM     23  C6  UNL     1      -3.382  -8.997  -5.623  1.00  0.00    +0.032 A 
ATOM     24  C7  UNL     1      -2.227  -8.533  -6.265  1.00  0.00    +0.032 A 
ATOM     25  C19 UNL     1      -1.201  -8.015  -5.476  1.00  0.00    +0.024 A 
ATOM     26  C20 UNL     1      -1.317  -7.974  -4.082  1.00  0.00    +0.014 A 
ATOM     27  C21 UNL     1      -2.472  -8.454  -3.423  1.00  0.00    +0.024 A 
BRANCH  18  28
ATOM     28  O1  UNL     1      -1.696  -8.020  -1.140  1.00  0.00    -0.506 OA
ATOM     29  H1  UNL     1      -1.306  -8.793  -0.704  1.00  0.00    +0.292 HD
ENDBRANCH  18  28
ENDBRANCH  16  24
ENDBRANCH   1  16
TORSDOF 4
ENDMDL
