MODEL 1
REMARK VINA RESULT:    -7.128      0.000      0.000
REMARK INTER + INTRA:          -8.725
REMARK INTER:                  -7.699
REMARK INTRA:                  -1.027
REMARK UNBOUND:                -0.139
REMARK  Name = docking/ligands/PERK_CHEMBL2171126.pdb
REMARK  5 active torsions:
REMARK  status: ('A' for Active; 'I' for Inactive)
REMARK    1  A    between atoms: C1_1  and  N1_2
REMARK    2  A    between atoms: C3_4  and  C4_5
REMARK    3  A    between atoms: C12_14  and  C13_16
REMARK    4  A    between atoms: C13_16  and  C14_17
REMARK    5  A    between atoms: C21_27  and  N3_28
REMARK                            x       y       z     vdW  Elec       q    Type
REMARK                         _______ _______ _______ _____ _____    ______ ____
ROOT
ATOM      1  C4  UNL     1     -11.324  -5.734  -4.596  1.00  0.00    -0.015 A 
ATOM      2  C5  UNL     1     -11.177  -5.761  -5.993  1.00  0.00    +0.010 A 
ATOM      3  C6  UNL     1     -11.532  -4.657  -6.784  1.00  0.00    +0.024 A 
ATOM      4  C7  UNL     1     -12.039  -3.525  -6.169  1.00  0.00    +0.040 A 
ATOM      5  C8  UNL     1     -12.184  -3.504  -4.776  1.00  0.00    -0.024 A 
ATOM      6  C9  UNL     1     -11.829  -4.587  -3.980  1.00  0.00    +0.014 A 
ATOM      7  C10 UNL     1     -12.722  -2.197  -4.291  1.00  0.00    +0.056 C 
ATOM      8  C11 UNL     1     -13.035  -1.485  -5.606  1.00  0.00    +0.118 C 
ATOM      9  N2  UNL     1     -12.485  -2.299  -6.702  1.00  0.00    -0.271 N 
ATOM     10  C12 UNL     1     -12.529  -1.792  -7.987  1.00  0.00    +0.224 C 
ATOM     11  O1  UNL     1     -13.029  -0.680  -8.196  1.00  0.00    -0.275 OA
ENDROOT
BRANCH   1  15
ATOM     12  C1  UNL     1      -8.480  -8.950  -2.143  1.00  0.00    +0.150 C 
ATOM     13  N1  UNL     1      -9.652  -8.328  -2.713  1.00  0.00    -0.334 N 
ATOM     14  C2  UNL     1      -9.657  -7.167  -3.441  1.00  0.00    +0.096 A 
ATOM     15  C3  UNL     1     -10.964  -6.894  -3.804  1.00  0.00    +0.012 A 
ATOM     16  C20 UNL     1     -11.784  -7.937  -3.265  1.00  0.00    +0.066 A 
ATOM     17  C21 UNL     1     -13.151  -8.260  -3.234  1.00  0.00    +0.129 A 
ATOM     18  N4  UNL     1     -13.545  -9.369  -2.580  1.00  0.00    -0.220 NA
ATOM     19  C22 UNL     1     -12.608 -10.132  -1.988  1.00  0.00    +0.225 A 
ATOM     20  N5  UNL     1     -11.282  -9.927  -1.938  1.00  0.00    -0.218 NA
ATOM     21  C23 UNL     1     -10.932  -8.809  -2.596  1.00  0.00    +0.146 A 
BRANCH  17  22
ATOM     22  N3  UNL     1     -14.150  -7.491  -3.814  1.00  0.00    -0.343 N 
ATOM     23  H16 UNL     1     -14.061  -6.494  -3.666  1.00  0.00    +0.144 HD
ATOM     24  H17 UNL     1     -15.061  -7.894  -3.629  1.00  0.00    +0.144 HD
ENDBRANCH  17  22
ENDBRANCH   1  15
BRANCH  10  25
ATOM     25  C13 UNL     1     -11.928  -2.595  -9.127  1.00  0.00    +0.134 C 
BRANCH  25  26
ATOM     26  C14 UNL     1     -10.488  -2.243  -9.418  1.00  0.00    +0.002 A 
ATOM     27  C15 UNL     1      -9.437  -2.818  -8.688  1.00  0.00    +0.045 A 
ATOM     28  C16 UNL     1      -8.119  -2.441  -8.945  1.00  0.00    +0.127 A 
ATOM     29  F1  UNL     1      -7.127  -2.996  -8.237  1.00  0.00    -0.205 F 
ATOM     30  C17 UNL     1      -7.818  -1.493  -9.916  1.00  0.00    +0.079 A 
ATOM     31  C18 UNL     1      -8.858  -0.916 -10.633  1.00  0.00    +0.161 A 
ATOM     32  F2  UNL     1      -8.578   0.001 -11.570  1.00  0.00    -0.202 F 
ATOM     33  C19 UNL     1     -10.179  -1.283 -10.388  1.00  0.00    +0.162 A 
ATOM     34  F3  UNL     1     -11.165  -0.714 -11.092  1.00  0.00    -0.202 F 
ENDBRANCH  25  26
ENDBRANCH  10  25
TORSDOF 4
ENDMDL
MODEL 2
REMARK VINA RESULT:    -7.063      4.442      8.177
REMARK INTER + INTRA:          -8.648
REMARK INTER:                  -7.646
REMARK INTRA:                  -1.001
REMARK UNBOUND:                -0.139
REMARK  Name = docking/ligands/PERK_CHEMBL2171126.pdb
REMARK  5 active torsions:
REMARK  status: ('A' for Active; 'I' for Inactive)
REMARK    1  A    between atoms: C1_1  and  N1_2
REMARK    2  A    between atoms: C3_4  and  C4_5
REMARK    3  A    between atoms: C12_14  and  C13_16
REMARK    4  A    between atoms: C13_16  and  C14_17
REMARK    5  A    between atoms: C21_27  and  N3_28
REMARK                            x       y       z     vdW  Elec       q    Type
REMARK                         _______ _______ _______ _____ _____    ______ ____
ROOT
ATOM      1  C4  UNL     1      -8.685  -3.936  -9.584  1.00  0.00    -0.015 A 
ATOM      2  C5  UNL     1      -9.054  -3.205  -8.443  1.00  0.00    +0.010 A 
ATOM      3  C6  UNL     1     -10.308  -3.384  -7.838  1.00  0.00    +0.024 A 
ATOM      4  C7  UNL     1     -11.194  -4.297  -8.384  1.00  0.00    +0.040 A 
ATOM      5  C8  UNL     1     -10.820  -5.022  -9.522  1.00  0.00    -0.024 A 
ATOM      6  C9  UNL     1      -9.578  -4.862 -10.127  1.00  0.00    +0.014 A 
ATOM      7  C10 UNL     1     -11.890  -5.973  -9.953  1.00  0.00    +0.056 C 
ATOM      8  C11 UNL     1     -13.031  -5.602  -9.008  1.00  0.00    +0.118 C 
ATOM      9  N2  UNL     1     -12.500  -4.664  -8.006  1.00  0.00    -0.271 N 
ATOM     10  C12 UNL     1     -13.318  -4.286  -6.958  1.00  0.00    +0.224 C 
ATOM     11  O1  UNL     1     -14.471  -4.730  -6.881  1.00  0.00    -0.275 OA
ENDROOT
BRANCH   1  15
ATOM     12  C1  UNL     1      -5.167  -1.785 -12.313  1.00  0.00    +0.150 C 
ATOM     13  N1  UNL     1      -5.829  -2.730 -11.443  1.00  0.00    -0.334 N 
ATOM     14  C2  UNL     1      -7.128  -2.637 -11.018  1.00  0.00    +0.096 A 
ATOM     15  C3  UNL     1      -7.388  -3.722 -10.198  1.00  0.00    +0.012 A 
ATOM     16  C20 UNL     1      -6.189  -4.498 -10.123  1.00  0.00    +0.066 A 
ATOM     17  C21 UNL     1      -5.758  -5.668  -9.473  1.00  0.00    +0.129 A 
ATOM     18  N4  UNL     1      -4.490  -6.085  -9.652  1.00  0.00    -0.220 NA
ATOM     19  C22 UNL     1      -3.686  -5.366 -10.457  1.00  0.00    +0.225 A 
ATOM     20  N5  UNL     1      -3.973  -4.235 -11.120  1.00  0.00    -0.218 NA
ATOM     21  C23 UNL     1      -5.243  -3.851 -10.911  1.00  0.00    +0.146 A 
BRANCH  17  22
ATOM     22  N3  UNL     1      -6.548  -6.426  -8.621  1.00  0.00    -0.343 N 
ATOM     23  H16 UNL     1      -7.001  -7.221  -9.054  1.00  0.00    +0.144 HD
ATOM     24  H17 UNL     1      -7.136  -5.827  -8.055  1.00  0.00    +0.144 HD
ENDBRANCH  17  22
ENDBRANCH   1  15
BRANCH  10  25
ATOM     25  C13 UNL     1     -12.777  -3.353  -5.888  1.00  0.00    +0.134 C 
BRANCH  25  26
ATOM     26  C14 UNL     1     -12.108  -4.076  -4.742  1.00  0.00    +0.002 A 
ATOM     27  C15 UNL     1     -11.594  -5.371  -4.901  1.00  0.00    +0.045 A 
ATOM     28  C16 UNL     1     -11.023  -6.034  -3.815  1.00  0.00    +0.127 A 
ATOM     29  F1  UNL     1     -10.539  -7.272  -3.981  1.00  0.00    -0.205 F 
ATOM     30  C17 UNL     1     -10.955  -5.437  -2.562  1.00  0.00    +0.079 A 
ATOM     31  C18 UNL     1     -11.471  -4.159  -2.401  1.00  0.00    +0.161 A 
ATOM     32  F2  UNL     1     -11.412  -3.574  -1.196  1.00  0.00    -0.202 F 
ATOM     33  C19 UNL     1     -12.045  -3.483  -3.476  1.00  0.00    +0.162 A 
ATOM     34  F3  UNL     1     -12.536  -2.251  -3.298  1.00  0.00    -0.202 F 
ENDBRANCH  25  26
ENDBRANCH  10  25
TORSDOF 4
ENDMDL
MODEL 3
REMARK VINA RESULT:    -6.959      4.410      8.222
REMARK INTER + INTRA:          -8.522
REMARK INTER:                  -7.736
REMARK INTRA:                  -0.786
REMARK UNBOUND:                -0.139
REMARK  Name = docking/ligands/PERK_CHEMBL2171126.pdb
REMARK  5 active torsions:
REMARK  status: ('A' for Active; 'I' for Inactive)
REMARK    1  A    between atoms: C1_1  and  N1_2
REMARK    2  A    between atoms: C3_4  and  C4_5
REMARK    3  A    between atoms: C12_14  and  C13_16
REMARK    4  A    between atoms: C13_16  and  C14_17
REMARK    5  A    between atoms: C21_27  and  N3_28
REMARK                            x       y       z     vdW  Elec       q    Type
REMARK                         _______ _______ _______ _____ _____    ______ ____
ROOT
ATOM      1  C4  UNL     1      -7.882  -6.029  -8.572  1.00  0.00    -0.015 A 
ATOM      2  C5  UNL     1      -9.199  -5.567  -8.412  1.00  0.00    +0.010 A 
ATOM      3  C6  UNL     1     -10.048  -6.111  -7.436  1.00  0.00    +0.024 A 
ATOM      4  C7  UNL     1      -9.573  -7.125  -6.621  1.00  0.00    +0.040 A 
ATOM      5  C8  UNL     1      -8.260  -7.582  -6.786  1.00  0.00    -0.024 A 
ATOM      6  C9  UNL     1      -7.405  -7.047  -7.743  1.00  0.00    +0.014 A 
ATOM      7  C10 UNL     1      -7.918  -8.659  -5.807  1.00  0.00    +0.056 C 
ATOM      8  C11 UNL     1      -9.266  -8.901  -5.131  1.00  0.00    +0.118 C 
ATOM      9  N2  UNL     1     -10.195  -7.855  -5.589  1.00  0.00    -0.271 N 
ATOM     10  C12 UNL     1     -11.448  -7.786  -5.010  1.00  0.00    +0.224 C 
ATOM     11  O1  UNL     1     -11.770  -8.597  -4.133  1.00  0.00    -0.275 OA
ENDROOT
BRANCH   1  15
ATOM     12  C1  UNL     1      -4.654  -5.841 -12.313  1.00  0.00    +0.150 C 
ATOM     13  N1  UNL     1      -5.568  -5.412 -11.280  1.00  0.00    -0.334 N 
ATOM     14  C2  UNL     1      -6.259  -6.245 -10.439  1.00  0.00    +0.096 A 
ATOM     15  C3  UNL     1      -7.030  -5.460  -9.599  1.00  0.00    +0.012 A 
ATOM     16  C20 UNL     1      -6.796  -4.094  -9.954  1.00  0.00    +0.066 A 
ATOM     17  C21 UNL     1      -7.250  -2.830  -9.542  1.00  0.00    +0.129 A 
ATOM     18  N4  UNL     1      -6.781  -1.732 -10.164  1.00  0.00    -0.220 NA
ATOM     19  C22 UNL     1      -5.883  -1.890 -11.155  1.00  0.00    +0.225 A 
ATOM     20  N5  UNL     1      -5.383  -3.035 -11.644  1.00  0.00    -0.218 NA
ATOM     21  C23 UNL     1      -5.880  -4.105 -11.000  1.00  0.00    +0.146 A 
BRANCH  17  22
ATOM     22  N3  UNL     1      -8.188  -2.624  -8.539  1.00  0.00    -0.343 N 
ATOM     23  H16 UNL     1      -7.928  -1.932  -7.847  1.00  0.00    +0.144 HD
ATOM     24  H17 UNL     1      -8.528  -3.510  -8.184  1.00  0.00    +0.144 HD
ENDBRANCH  17  22
ENDBRANCH   1  15
BRANCH  10  25
ATOM     25  C13 UNL     1     -12.407  -6.688  -5.435  1.00  0.00    +0.134 C 
BRANCH  25  26
ATOM     26  C14 UNL     1     -12.168  -5.373  -4.729  1.00  0.00    +0.002 A 
ATOM     27  C15 UNL     1     -11.719  -5.334  -3.400  1.00  0.00    +0.045 A 
ATOM     28  C16 UNL     1     -11.550  -4.108  -2.756  1.00  0.00    +0.127 A 
ATOM     29  F1  UNL     1     -11.124  -4.087  -1.486  1.00  0.00    -0.205 F 
ATOM     30  C17 UNL     1     -11.826  -2.910  -3.404  1.00  0.00    +0.079 A 
ATOM     31  C18 UNL     1     -12.279  -2.948  -4.716  1.00  0.00    +0.161 A 
ATOM     32  F2  UNL     1     -12.549  -1.798  -5.350  1.00  0.00    -0.202 F 
ATOM     33  C19 UNL     1     -12.452  -4.164  -5.373  1.00  0.00    +0.162 A 
ATOM     34  F3  UNL     1     -12.889  -4.177  -6.638  1.00  0.00    -0.202 F 
ENDBRANCH  25  26
ENDBRANCH  10  25
TORSDOF 4
ENDMDL
MODEL 4
REMARK VINA RESULT:    -6.810      4.205      8.053
REMARK INTER + INTRA:          -8.343
REMARK INTER:                  -7.273
REMARK INTRA:                  -1.070
REMARK UNBOUND:                -0.139
REMARK  Name = docking/ligands/PERK_CHEMBL2171126.pdb
REMARK  5 active torsions:
REMARK  status: ('A' for Active; 'I' for Inactive)
REMARK    1  A    between atoms: C1_1  and  N1_2
REMARK    2  A    between atoms: C3_4  and  C4_5
REMARK    3  A    between atoms: C12_14  and  C13_16
REMARK    4  A    between atoms: C13_16  and  C14_17
REMARK    5  A    between atoms: C21_27  and  N3_28
REMARK                            x       y       z     vdW  Elec       q    Type
REMARK                         _______ _______ _______ _____ _____    ______ ____
ROOT
ATOM      1  C4  UNL     1      -9.529  -4.191  -8.832  1.00  0.00    -0.015 A 
ATOM      2  C5  UNL     1      -9.782  -3.329  -7.752  1.00  0.00    +0.010 A 
ATOM      3  C6  UNL     1     -11.069  -3.203  -7.206  1.00  0.00    +0.024 A 
ATOM      4  C7  UNL     1     -12.105  -3.945  -7.749  1.00  0.00    +0.040 A 
ATOM      5  C8  UNL     1     -11.847  -4.801  -8.826  1.00  0.00    -0.024 A 
ATOM      6  C9  UNL     1     -10.576  -4.942  -9.372  1.00  0.00    +0.014 A 
ATOM      7  C10 UNL     1     -13.076  -5.533  -9.262  1.00  0.00    +0.056 C 
ATOM      8  C11 UNL     1     -14.150  -4.874  -8.400  1.00  0.00    +0.118 C 
ATOM      9  N2  UNL     1     -13.474  -4.007  -7.422  1.00  0.00    -0.271 N 
ATOM     10  C12 UNL     1     -14.235  -3.401  -6.439  1.00  0.00    +0.224 C 
ATOM     11  O1  UNL     1     -15.457  -3.589  -6.400  1.00  0.00    -0.275 OA
ENDROOT
BRANCH   1  15
ATOM     12  C1  UNL     1      -5.096  -6.112  -9.885  1.00  0.00    +0.150 C 
ATOM     13  N1  UNL     1      -6.202  -5.183  -9.837  1.00  0.00    -0.334 N 
ATOM     14  C2  UNL     1      -7.395  -5.406  -9.202  1.00  0.00    +0.096 A 
ATOM     15  C3  UNL     1      -8.193  -4.290  -9.387  1.00  0.00    +0.012 A 
ATOM     16  C20 UNL     1      -7.447  -3.356 -10.174  1.00  0.00    +0.066 A 
ATOM     17  C21 UNL     1      -7.652  -2.081 -10.728  1.00  0.00    +0.129 A 
ATOM     18  N4  UNL     1      -6.666  -1.518 -11.452  1.00  0.00    -0.220 NA
ATOM     19  C22 UNL     1      -5.515  -2.199 -11.609  1.00  0.00    +0.225 A 
ATOM     20  N5  UNL     1      -5.204  -3.418 -11.142  1.00  0.00    -0.218 NA
ATOM     21  C23 UNL     1      -6.214  -3.946 -10.432  1.00  0.00    +0.146 A 
BRANCH  17  22
ATOM     22  N3  UNL     1      -8.828  -1.355 -10.607  1.00  0.00    -0.343 N 
ATOM     23  H16 UNL     1      -9.671  -1.914 -10.550  1.00  0.00    +0.144 HD
ATOM     24  H17 UNL     1      -8.841  -0.587 -11.267  1.00  0.00    +0.144 HD
ENDBRANCH  17  22
ENDBRANCH   1  15
BRANCH  10  25
ATOM     25  C13 UNL     1     -13.553  -2.536  -5.393  1.00  0.00    +0.134 C 
BRANCH  25  26
ATOM     26  C14 UNL     1     -13.119  -3.305  -4.167  1.00  0.00    +0.002 A 
ATOM     27  C15 UNL     1     -13.934  -4.302  -3.609  1.00  0.00    +0.045 A 
ATOM     28  C16 UNL     1     -13.530  -4.965  -2.449  1.00  0.00    +0.127 A 
ATOM     29  F1  UNL     1     -14.321  -5.912  -1.926  1.00  0.00    -0.205 F 
ATOM     30  C17 UNL     1     -12.330  -4.655  -1.823  1.00  0.00    +0.079 A 
ATOM     31  C18 UNL     1     -11.527  -3.662  -2.369  1.00  0.00    +0.161 A 
ATOM     32  F2  UNL     1     -10.367  -3.354  -1.772  1.00  0.00    -0.202 F 
ATOM     33  C19 UNL     1     -11.915  -2.991  -3.527  1.00  0.00    +0.162 A 
ATOM     34  F3  UNL     1     -11.125  -2.039  -4.036  1.00  0.00    -0.202 F 
ENDBRANCH  25  26
ENDBRANCH  10  25
TORSDOF 4
ENDMDL
MODEL 5
REMARK VINA RESULT:    -6.780      4.338      6.636
REMARK INTER + INTRA:          -8.306
REMARK INTER:                  -7.285
REMARK INTRA:                  -1.021
REMARK UNBOUND:                -0.139
REMARK  Name = docking/ligands/PERK_CHEMBL2171126.pdb
REMARK  5 active torsions:
REMARK  status: ('A' for Active; 'I' for Inactive)
REMARK    1  A    between atoms: C1_1  and  N1_2
REMARK    2  A    between atoms: C3_4  and  C4_5
REMARK    3  A    between atoms: C12_14  and  C13_16
REMARK    4  A    between atoms: C13_16  and  C14_17
REMARK    5  A    between atoms: C21_27  and  N3_28
REMARK                            x       y       z     vdW  Elec       q    Type
REMARK                         _______ _______ _______ _____ _____    ______ ____
ROOT
ATOM      1  C4  UNL     1      -9.744  -8.479  -3.766  1.00  0.00    -0.015 A 
ATOM      2  C5  UNL     1      -9.945  -7.164  -3.314  1.00  0.00    +0.010 A 
ATOM      3  C6  UNL     1     -11.215  -6.715  -2.921  1.00  0.00    +0.024 A 
ATOM      4  C7  UNL     1     -12.287  -7.589  -2.986  1.00  0.00    +0.040 A 
ATOM      5  C8  UNL     1     -12.081  -8.898  -3.438  1.00  0.00    -0.024 A 
ATOM      6  C9  UNL     1     -10.827  -9.359  -3.822  1.00  0.00    +0.014 A 
ATOM      7  C10 UNL     1     -13.343  -9.700  -3.418  1.00  0.00    +0.056 C 
ATOM      8  C11 UNL     1     -14.376  -8.639  -3.043  1.00  0.00    +0.118 C 
ATOM      9  N2  UNL     1     -13.650  -7.412  -2.678  1.00  0.00    -0.271 N 
ATOM     10  C12 UNL     1     -14.371  -6.345  -2.173  1.00  0.00    +0.224 C 
ATOM     11  O1  UNL     1     -15.598  -6.434  -2.041  1.00  0.00    -0.275 OA
ENDROOT
BRANCH   1  15
ATOM     12  C1  UNL     1      -6.019  -9.702  -6.779  1.00  0.00    +0.150 C 
ATOM     13  N1  UNL     1      -6.769  -9.464  -5.567  1.00  0.00    -0.334 N 
ATOM     14  C2  UNL     1      -8.065  -9.024  -5.513  1.00  0.00    +0.096 A 
ATOM     15  C3  UNL     1      -8.424  -8.913  -4.180  1.00  0.00    +0.012 A 
ATOM     16  C20 UNL     1      -7.290  -9.301  -3.399  1.00  0.00    +0.066 A 
ATOM     17  C21 UNL     1      -6.963  -9.398  -2.035  1.00  0.00    +0.129 A 
ATOM     18  N4  UNL     1      -5.729  -9.807  -1.687  1.00  0.00    -0.220 NA
ATOM     19  C22 UNL     1      -4.856 -10.117  -2.664  1.00  0.00    +0.225 A 
ATOM     20  N5  UNL     1      -5.042 -10.055  -3.991  1.00  0.00    -0.218 NA
ATOM     21  C23 UNL     1      -6.282  -9.638  -4.296  1.00  0.00    +0.146 A 
BRANCH  17  22
ATOM     22  N3  UNL     1      -7.826  -9.071  -0.999  1.00  0.00    -0.343 N 
ATOM     23  H16 UNL     1      -7.405  -9.065  -0.078  1.00  0.00    +0.144 HD
ATOM     24  H17 UNL     1      -8.699  -9.576  -1.091  1.00  0.00    +0.144 HD
ENDBRANCH  17  22
ENDBRANCH   1  15
BRANCH  10  25
ATOM     25  C13 UNL     1     -13.638  -5.084  -1.750  1.00  0.00    +0.134 C 
BRANCH  25  26
ATOM     26  C14 UNL     1     -13.464  -4.085  -2.870  1.00  0.00    +0.002 A 
ATOM     27  C15 UNL     1     -14.414  -3.972  -3.897  1.00  0.00    +0.045 A 
ATOM     28  C16 UNL     1     -14.207  -3.074  -4.944  1.00  0.00    +0.127 A 
ATOM     29  F1  UNL     1     -15.122  -2.980  -5.918  1.00  0.00    -0.205 F 
ATOM     30  C17 UNL     1     -13.066  -2.282  -4.999  1.00  0.00    +0.079 A 
ATOM     31  C18 UNL     1     -12.121  -2.400  -3.989  1.00  0.00    +0.161 A 
ATOM     32  F2  UNL     1     -11.016  -1.642  -4.033  1.00  0.00    -0.202 F 
ATOM     33  C19 UNL     1     -12.313  -3.292  -2.936  1.00  0.00    +0.162 A 
ATOM     34  F3  UNL     1     -11.389  -3.387  -1.973  1.00  0.00    -0.202 F 
ENDBRANCH  25  26
ENDBRANCH  10  25
TORSDOF 4
ENDMDL
MODEL 6
REMARK VINA RESULT:    -6.703      4.407      8.735
REMARK INTER + INTRA:          -8.214
REMARK INTER:                  -7.100
REMARK INTRA:                  -1.113
REMARK UNBOUND:                -0.139
REMARK  Name = docking/ligands/PERK_CHEMBL2171126.pdb
REMARK  5 active torsions:
REMARK  status: ('A' for Active; 'I' for Inactive)
REMARK    1  A    between atoms: C1_1  and  N1_2
REMARK    2  A    between atoms: C3_4  and  C4_5
REMARK    3  A    between atoms: C12_14  and  C13_16
REMARK    4  A    between atoms: C13_16  and  C14_17
REMARK    5  A    between atoms: C21_27  and  N3_28
REMARK                            x       y       z     vdW  Elec       q    Type
REMARK                         _______ _______ _______ _____ _____    ______ ____
ROOT
ATOM      1  C4  UNL     1     -13.710  -0.223  -4.313  1.00  0.00    -0.015 A 
ATOM      2  C5  UNL     1     -12.468  -0.832  -4.069  1.00  0.00    +0.010 A 
ATOM      3  C6  UNL     1     -12.383  -2.161  -3.626  1.00  0.00    +0.024 A 
ATOM      4  C7  UNL     1     -13.550  -2.878  -3.425  1.00  0.00    +0.040 A 
ATOM      5  C8  UNL     1     -14.785  -2.266  -3.668  1.00  0.00    -0.024 A 
ATOM      6  C9  UNL     1     -14.884  -0.953  -4.116  1.00  0.00    +0.014 A 
ATOM      7  C10 UNL     1     -15.928  -3.197  -3.420  1.00  0.00    +0.056 C 
ATOM      8  C11 UNL     1     -15.213  -4.412  -2.833  1.00  0.00    +0.118 C 
ATOM      9  N2  UNL     1     -13.764  -4.197  -2.977  1.00  0.00    -0.271 N 
ATOM     10  C12 UNL     1     -12.907  -5.226  -2.635  1.00  0.00    +0.224 C 
ATOM     11  O1  UNL     1     -13.362  -6.296  -2.213  1.00  0.00    -0.275 OA
ENDROOT
BRANCH   1  15
ATOM     12  C1  UNL     1     -14.143   4.696  -4.054  1.00  0.00    +0.150 C 
ATOM     13  N1  UNL     1     -13.977   3.370  -4.603  1.00  0.00    -0.334 N 
ATOM     14  C2  UNL     1     -13.955   2.209  -3.876  1.00  0.00    +0.096 A 
ATOM     15  C3  UNL     1     -13.770   1.157  -4.756  1.00  0.00    +0.012 A 
ATOM     16  C20 UNL     1     -13.671   1.711  -6.072  1.00  0.00    +0.066 A 
ATOM     17  C21 UNL     1     -13.466   1.235  -7.378  1.00  0.00    +0.129 A 
ATOM     18  N4  UNL     1     -13.419   2.116  -8.395  1.00  0.00    -0.220 NA
ATOM     19  C22 UNL     1     -13.581   3.423  -8.119  1.00  0.00    +0.225 A 
ATOM     20  N5  UNL     1     -13.772   4.000  -6.922  1.00  0.00    -0.218 NA
ATOM     21  C23 UNL     1     -13.807   3.089  -5.936  1.00  0.00    +0.146 A 
BRANCH  17  22
ATOM     22  N3  UNL     1     -13.275  -0.101  -7.702  1.00  0.00    -0.343 N 
ATOM     23  H16 UNL     1     -12.405  -0.305  -8.177  1.00  0.00    +0.144 HD
ATOM     24  H17 UNL     1     -14.114  -0.489  -8.115  1.00  0.00    +0.144 HD
ENDBRANCH  17  22
ENDBRANCH   1  15
BRANCH  10  25
ATOM     25  C13 UNL     1     -11.410  -5.042  -2.817  1.00  0.00    +0.134 C 
BRANCH  25  26
ATOM     26  C14 UNL     1     -10.791  -6.044  -3.764  1.00  0.00    +0.002 A 
ATOM     27  C15 UNL     1      -9.899  -7.024  -3.303  1.00  0.00    +0.045 A 
ATOM     28  C16 UNL     1      -9.305  -7.907  -4.205  1.00  0.00    +0.127 A 
ATOM     29  F1  UNL     1      -8.453  -8.835  -3.751  1.00  0.00    -0.205 F 
ATOM     30  C17 UNL     1      -9.575  -7.836  -5.567  1.00  0.00    +0.079 A 
ATOM     31  C18 UNL     1     -10.451  -6.860  -6.025  1.00  0.00    +0.161 A 
ATOM     32  F2  UNL     1     -10.717  -6.782  -7.336  1.00  0.00    -0.202 F 
ATOM     33  C19 UNL     1     -11.052  -5.971  -5.136  1.00  0.00    +0.162 A 
ATOM     34  F3  UNL     1     -11.894  -5.040  -5.601  1.00  0.00    -0.202 F 
ENDBRANCH  25  26
ENDBRANCH  10  25
TORSDOF 4
ENDMDL
MODEL 7
REMARK VINA RESULT:    -6.660      9.629     13.584
REMARK INTER + INTRA:          -8.162
REMARK INTER:                  -8.022
REMARK INTRA:                  -0.139
REMARK UNBOUND:                -0.139
REMARK  Name = docking/ligands/PERK_CHEMBL2171126.pdb
REMARK  5 active torsions:
REMARK  status: ('A' for Active; 'I' for Inactive)
REMARK    1  A    between atoms: C1_1  and  N1_2
REMARK    2  A    between atoms: C3_4  and  C4_5
REMARK    3  A    between atoms: C12_14  and  C13_16
REMARK    4  A    between atoms: C13_16  and  C14_17
REMARK    5  A    between atoms: C21_27  and  N3_28
REMARK                            x       y       z     vdW  Elec       q    Type
REMARK                         _______ _______ _______ _____ _____    ______ ____
ROOT
ATOM      1  C4  UNL     1      -2.561  -9.199  -2.400  1.00  0.00    -0.015 A 
ATOM      2  C5  UNL     1      -1.927  -9.497  -1.182  1.00  0.00    +0.010 A 
ATOM      3  C6  UNL     1      -0.535  -9.383  -1.039  1.00  0.00    +0.024 A 
ATOM      4  C7  UNL     1       0.221  -8.972  -2.124  1.00  0.00    +0.040 A 
ATOM      5  C8  UNL     1      -0.417  -8.677  -3.335  1.00  0.00    -0.024 A 
ATOM      6  C9  UNL     1      -1.795  -8.777  -3.489  1.00  0.00    +0.014 A 
ATOM      7  C10 UNL     1       0.553  -8.230  -4.381  1.00  0.00    +0.056 C 
ATOM      8  C11 UNL     1       1.890  -8.452  -3.677  1.00  0.00    +0.118 C 
ATOM      9  N2  UNL     1       1.610  -8.789  -2.272  1.00  0.00    -0.271 N 
ATOM     10  C12 UNL     1       2.673  -8.906  -1.397  1.00  0.00    +0.224 C 
ATOM     11  O1  UNL     1       3.830  -8.736  -1.802  1.00  0.00    -0.275 OA
ENDROOT
BRANCH   1  15
ATOM     12  C1  UNL     1      -7.305  -9.532  -1.045  1.00  0.00    +0.150 C 
ATOM     13  N1  UNL     1      -6.126  -9.493  -1.879  1.00  0.00    -0.334 N 
ATOM     14  C2  UNL     1      -4.843  -9.330  -1.428  1.00  0.00    +0.096 A 
ATOM     15  C3  UNL     1      -3.999  -9.339  -2.525  1.00  0.00    +0.012 A 
ATOM     16  C20 UNL     1      -4.814  -9.511  -3.690  1.00  0.00    +0.066 A 
ATOM     17  C21 UNL     1      -4.621  -9.585  -5.080  1.00  0.00    +0.129 A 
ATOM     18  N4  UNL     1      -5.692  -9.743  -5.880  1.00  0.00    -0.220 NA
ATOM     19  C22 UNL     1      -6.909  -9.835  -5.313  1.00  0.00    +0.225 A 
ATOM     20  N5  UNL     1      -7.222  -9.769  -4.009  1.00  0.00    -0.218 NA
ATOM     21  C23 UNL     1      -6.128  -9.606  -3.247  1.00  0.00    +0.146 A 
BRANCH  17  22
ATOM     22  N3  UNL     1      -3.387  -9.476  -5.705  1.00  0.00    -0.343 N 
ATOM     23  H16 UNL     1      -3.224  -8.595  -6.178  1.00  0.00    +0.144 HD
ATOM     24  H17 UNL     1      -3.181 -10.315  -6.234  1.00  0.00    +0.144 HD
ENDBRANCH  17  22
ENDBRANCH   1  15
BRANCH  10  25
ATOM     25  C13 UNL     1       2.405  -9.210   0.067  1.00  0.00    +0.134 C 
BRANCH  25  26
ATOM     26  C14 UNL     1       2.370  -7.977   0.941  1.00  0.00    +0.002 A 
ATOM     27  C15 UNL     1       3.367  -6.995   0.852  1.00  0.00    +0.045 A 
ATOM     28  C16 UNL     1       3.336  -5.889   1.702  1.00  0.00    +0.127 A 
ATOM     29  F1  UNL     1       4.298  -4.961   1.607  1.00  0.00    -0.205 F 
ATOM     30  C17 UNL     1       2.332  -5.738   2.650  1.00  0.00    +0.079 A 
ATOM     31  C18 UNL     1       1.350  -6.714   2.745  1.00  0.00    +0.161 A 
ATOM     32  F2  UNL     1       0.377  -6.579   3.658  1.00  0.00    -0.202 F 
ATOM     33  C19 UNL     1       1.366  -7.824   1.903  1.00  0.00    +0.162 A 
ATOM     34  F3  UNL     1       0.408  -8.752   2.013  1.00  0.00    -0.202 F 
ENDBRANCH  25  26
ENDBRANCH  10  25
TORSDOF 4
ENDMDL
MODEL 8
REMARK VINA RESULT:    -6.618      4.022      8.409
REMARK INTER + INTRA:          -8.111
REMARK INTER:                  -6.986
REMARK INTRA:                  -1.126
REMARK UNBOUND:                -0.139
REMARK  Name = docking/ligands/PERK_CHEMBL2171126.pdb
REMARK  5 active torsions:
REMARK  status: ('A' for Active; 'I' for Inactive)
REMARK    1  A    between atoms: C1_1  and  N1_2
REMARK    2  A    between atoms: C3_4  and  C4_5
REMARK    3  A    between atoms: C12_14  and  C13_16
REMARK    4  A    between atoms: C13_16  and  C14_17
REMARK    5  A    between atoms: C21_27  and  N3_28
REMARK                            x       y       z     vdW  Elec       q    Type
REMARK                         _______ _______ _______ _____ _____    ______ ____
ROOT
ATOM      1  C4  UNL     1     -13.431  -1.418  -4.296  1.00  0.00    -0.015 A 
ATOM      2  C5  UNL     1     -12.170  -1.965  -4.012  1.00  0.00    +0.010 A 
ATOM      3  C6  UNL     1     -12.024  -3.318  -3.668  1.00  0.00    +0.024 A 
ATOM      4  C7  UNL     1     -13.150  -4.121  -3.606  1.00  0.00    +0.040 A 
ATOM      5  C8  UNL     1     -14.405  -3.570  -3.890  1.00  0.00    -0.024 A 
ATOM      6  C9  UNL     1     -14.564  -2.233  -4.240  1.00  0.00    +0.014 A 
ATOM      7  C10 UNL     1     -15.496  -4.588  -3.795  1.00  0.00    +0.056 C 
ATOM      8  C11 UNL     1     -14.740  -5.800  -3.255  1.00  0.00    +0.118 C 
ATOM      9  N2  UNL     1     -13.303  -5.483  -3.278  1.00  0.00    -0.271 N 
ATOM     10  C12 UNL     1     -12.402  -6.481  -2.957  1.00  0.00    +0.224 C 
ATOM     11  O1  UNL     1     -12.810  -7.608  -2.652  1.00  0.00    -0.275 OA
ENDROOT
BRANCH   1  15
ATOM     12  C1  UNL     1     -14.018   3.451  -3.661  1.00  0.00    +0.150 C 
ATOM     13  N1  UNL     1     -13.831   2.175  -4.313  1.00  0.00    -0.334 N 
ATOM     14  C2  UNL     1     -13.739   0.967  -3.674  1.00  0.00    +0.096 A 
ATOM     15  C3  UNL     1     -13.556  -0.013  -4.634  1.00  0.00    +0.012 A 
ATOM     16  C20 UNL     1     -13.531   0.638  -5.909  1.00  0.00    +0.066 A 
ATOM     17  C21 UNL     1     -13.365   0.264  -7.253  1.00  0.00    +0.129 A 
ATOM     18  N4  UNL     1     -13.390   1.217  -8.204  1.00  0.00    -0.220 NA
ATOM     19  C22 UNL     1     -13.584   2.494  -7.828  1.00  0.00    +0.225 A 
ATOM     20  N5  UNL     1     -13.744   2.977  -6.585  1.00  0.00    -0.218 NA
ATOM     21  C23 UNL     1     -13.707   1.996  -5.668  1.00  0.00    +0.146 A 
BRANCH  17  22
ATOM     22  N3  UNL     1     -13.143  -1.038  -7.682  1.00  0.00    -0.343 N 
ATOM     23  H16 UNL     1     -12.453  -1.551  -7.148  1.00  0.00    +0.144 HD
ATOM     24  H17 UNL     1     -13.047  -1.068  -8.689  1.00  0.00    +0.144 HD
ENDBRANCH  17  22
ENDBRANCH   1  15
BRANCH  10  25
ATOM     25  C13 UNL     1     -10.913  -6.189  -3.016  1.00  0.00    +0.134 C 
BRANCH  25  26
ATOM     26  C14 UNL     1     -10.242  -6.730  -4.257  1.00  0.00    +0.002 A 
ATOM     27  C15 UNL     1     -10.671  -6.351  -5.539  1.00  0.00    +0.045 A 
ATOM     28  C16 UNL     1     -10.065  -6.901  -6.668  1.00  0.00    +0.127 A 
ATOM     29  F1  UNL     1     -10.488  -6.532  -7.885  1.00  0.00    -0.205 F 
ATOM     30  C17 UNL     1      -9.039  -7.831  -6.555  1.00  0.00    +0.079 A 
ATOM     31  C18 UNL     1      -8.621  -8.214  -5.288  1.00  0.00    +0.161 A 
ATOM     32  F2  UNL     1      -7.633  -9.113  -5.167  1.00  0.00    -0.202 F 
ATOM     33  C19 UNL     1      -9.215  -7.674  -4.149  1.00  0.00    +0.162 A 
ATOM     34  F3  UNL     1      -8.795  -8.057  -2.938  1.00  0.00    -0.202 F 
ENDBRANCH  25  26
ENDBRANCH  10  25
TORSDOF 4
ENDMDL
MODEL 9
REMARK VINA RESULT:    -4.583      3.705      5.518
REMARK INTER + INTRA:          -5.660
REMARK INTER:                  -4.640
REMARK INTRA:                  -1.021
REMARK UNBOUND:                -0.139
REMARK  Name = docking/ligands/PERK_CHEMBL2171126.pdb
REMARK  5 active torsions:
REMARK  status: ('A' for Active; 'I' for Inactive)
REMARK    1  A    between atoms: C1_1  and  N1_2
REMARK    2  A    between atoms: C3_4  and  C4_5
REMARK    3  A    between atoms: C12_14  and  C13_16
REMARK    4  A    between atoms: C13_16  and  C14_17
REMARK    5  A    between atoms: C21_27  and  N3_28
REMARK                            x       y       z     vdW  Elec       q    Type
REMARK                         _______ _______ _______ _____ _____    ______ ____
ROOT
ATOM      1  C4  UNL     1     -10.442  -7.351  -3.171  1.00  0.00    -0.015 A 
ATOM      2  C5  UNL     1     -10.324  -5.954  -3.267  1.00  0.00    +0.010 A 
ATOM      3  C6  UNL     1     -11.454  -5.123  -3.221  1.00  0.00    +0.024 A 
ATOM      4  C7  UNL     1     -12.706  -5.697  -3.080  1.00  0.00    +0.040 A 
ATOM      5  C8  UNL     1     -12.818  -7.090  -2.986  1.00  0.00    -0.024 A 
ATOM      6  C9  UNL     1     -11.706  -7.925  -3.023  1.00  0.00    +0.014 A 
ATOM      7  C10 UNL     1     -14.238  -7.524  -2.817  1.00  0.00    +0.056 C 
ATOM      8  C11 UNL     1     -14.987  -6.204  -2.986  1.00  0.00    +0.118 C 
ATOM      9  N2  UNL     1     -13.990  -5.122  -3.022  1.00  0.00    -0.271 N 
ATOM     10  C12 UNL     1     -14.438  -3.814  -3.036  1.00  0.00    +0.224 C 
ATOM     11  O1  UNL     1     -15.651  -3.574  -3.025  1.00  0.00    -0.275 OA
ENDROOT
BRANCH   1  15
ATOM     12  C1  UNL     1      -6.660 -10.133  -1.622  1.00  0.00    +0.150 C 
ATOM     13  N1  UNL     1      -7.562  -9.431  -2.505  1.00  0.00    -0.334 N 
ATOM     14  C2  UNL     1      -8.648  -8.697  -2.106  1.00  0.00    +0.096 A 
ATOM     15  C3  UNL     1      -9.260  -8.188  -3.238  1.00  0.00    +0.012 A 
ATOM     16  C20 UNL     1      -8.510  -8.641  -4.370  1.00  0.00    +0.066 A 
ATOM     17  C21 UNL     1      -8.582  -8.522  -5.768  1.00  0.00    +0.129 A 
ATOM     18  N4  UNL     1      -7.654  -9.137  -6.525  1.00  0.00    -0.220 NA
ATOM     19  C22 UNL     1      -6.683  -9.836  -5.908  1.00  0.00    +0.225 A 
ATOM     20  N5  UNL     1      -6.513 -10.032  -4.591  1.00  0.00    -0.218 NA
ATOM     21  C23 UNL     1      -7.462  -9.408  -3.874  1.00  0.00    +0.146 A 
BRANCH  17  22
ATOM     22  N3  UNL     1      -9.576  -7.827  -6.444  1.00  0.00    -0.343 N 
ATOM     23  H16 UNL     1      -9.253  -7.024  -6.968  1.00  0.00    +0.144 HD
ATOM     24  H17 UNL     1     -10.378  -7.680  -5.843  1.00  0.00    +0.144 HD
ENDBRANCH  17  22
ENDBRANCH   1  15
BRANCH  10  25
ATOM     25  C13 UNL     1     -13.427  -2.680  -3.030  1.00  0.00    +0.134 C 
BRANCH  25  26
ATOM     26  C14 UNL     1     -13.587  -1.724  -4.190  1.00  0.00    +0.002 A 
ATOM     27  C15 UNL     1     -13.288  -2.120  -5.503  1.00  0.00    +0.045 A 
ATOM     28  C16 UNL     1     -13.400  -1.205  -6.550  1.00  0.00    +0.127 A 
ATOM     29  F1  UNL     1     -13.108  -1.596  -7.797  1.00  0.00    -0.205 F 
ATOM     30  C17 UNL     1     -13.800   0.106  -6.321  1.00  0.00    +0.079 A 
ATOM     31  C18 UNL     1     -14.088   0.500  -5.021  1.00  0.00    +0.161 A 
ATOM     32  F2  UNL     1     -14.474   1.764  -4.789  1.00  0.00    -0.202 F 
ATOM     33  C19 UNL     1     -13.981  -0.401  -3.965  1.00  0.00    +0.162 A 
ATOM     34  F3  UNL     1     -14.264   0.001  -2.720  1.00  0.00    -0.202 F 
ENDBRANCH  25  26
ENDBRANCH  10  25
TORSDOF 4
ENDMDL
