MODEL 1
REMARK VINA RESULT:    -5.979      0.000      0.000
REMARK INTER + INTRA:          -7.098
REMARK INTER:                  -6.723
REMARK INTRA:                  -0.375
REMARK UNBOUND:                -0.419
REMARK  Name = docking/ligands/Staurosporine.pdb
REMARK  5 active torsions:
REMARK  status: ('A' for Active; 'I' for Inactive)
REMARK    1  A    between atoms: C1_1  and  N1_2
REMARK    2  A    between atoms: N1_2  and  C2_3
REMARK    3  A    between atoms: C5_7  and  C6_8
REMARK    4  A    between atoms: C7_9  and  O2_10
REMARK    5  A    between atoms: O2_10  and  C8_11
REMARK                            x       y       z     vdW  Elec       q    Type
REMARK                         _______ _______ _______ _____ _____    ______ ____
ROOT
ATOM      1  C2  UNL     1      -5.715  -6.946 -12.023  1.00  0.00    +0.091 C 
ATOM      2  C3  UNL     1      -4.502  -6.052 -12.287  1.00  0.00    +0.076 C 
ATOM      3  C4  UNL     1      -3.880  -5.444 -11.038  1.00  0.00    +0.224 C 
ATOM      4  O1  UNL     1      -4.809  -4.882 -10.115  1.00  0.00    -0.328 OA
ATOM      5  C5  UNL     1      -6.025  -5.613  -9.808  1.00  0.00    +0.174 C 
ATOM      6  C6  UNL     1      -6.895  -4.468  -9.231  1.00  0.00    +0.069 C 
ATOM      7  C7  UNL     1      -6.700  -6.158 -11.111  1.00  0.00    +0.187 C 
ATOM      8  N2  UNL     1      -5.760  -6.629  -8.762  1.00  0.00    -0.307 N 
ATOM      9  C9  UNL     1      -6.679  -7.182  -7.859  1.00  0.00    +0.053 A 
ATOM     10  C10 UNL     1      -8.080  -7.078  -7.745  1.00  0.00    +0.026 A 
ATOM     11  C11 UNL     1      -8.736  -7.724  -6.692  1.00  0.00    +0.002 A 
ATOM     12  C12 UNL     1      -8.029  -8.472  -5.766  1.00  0.00    +0.001 A 
ATOM     13  C13 UNL     1      -6.646  -8.609  -5.887  1.00  0.00    +0.010 A 
ATOM     14  C14 UNL     1      -5.959  -7.971  -6.944  1.00  0.00    +0.008 A 
ATOM     15  C15 UNL     1      -4.602  -7.977  -7.358  1.00  0.00    +0.015 A 
ATOM     16  C16 UNL     1      -3.412  -8.596  -6.940  1.00  0.00    -0.008 A 
ATOM     17  C17 UNL     1      -2.185  -8.437  -7.653  1.00  0.00    +0.052 A 
ATOM     18  C18 UNL     1      -2.033  -7.666  -8.813  1.00  0.00    +0.022 A 
ATOM     19  C19 UNL     1      -1.017  -7.325  -9.759  1.00  0.00    +0.008 A 
ATOM     20  C20 UNL     1       0.346  -7.656  -9.908  1.00  0.00    +0.010 A 
ATOM     21  C21 UNL     1       1.081  -7.145 -10.982  1.00  0.00    +0.001 A 
ATOM     22  C22 UNL     1       0.483  -6.307 -11.913  1.00  0.00    +0.002 A 
ATOM     23  C23 UNL     1      -0.864  -5.956 -11.797  1.00  0.00    +0.026 A 
ATOM     24  C24 UNL     1      -1.600  -6.474 -10.714  1.00  0.00    +0.052 A 
ATOM     25  N3  UNL     1      -2.925  -6.298 -10.351  1.00  0.00    -0.311 N 
ATOM     26  C25 UNL     1      -3.181  -7.018  -9.232  1.00  0.00    +0.077 A 
ATOM     27  C26 UNL     1      -4.529  -7.172  -8.477  1.00  0.00    +0.077 A 
ATOM     28  C27 UNL     1      -1.170  -9.238  -6.953  1.00  0.00    +0.245 C 
ATOM     29  O3  UNL     1       0.002  -9.375  -7.241  1.00  0.00    -0.270 OA
ATOM     30  N4  UNL     1      -1.791  -9.833  -5.878  1.00  0.00    -0.307 N 
ATOM     31  C28 UNL     1      -3.186  -9.511  -5.773  1.00  0.00    +0.141 C 
ATOM     32  H24 UNL     1      -1.276 -10.440  -5.253  1.00  0.00    +0.149 HD
ENDROOT
BRANCH   1  34
ATOM     33  C1  UNL     1      -4.421  -9.023 -12.311  1.00  0.00    +0.101 C 
ATOM     34  N1  UNL     1      -5.442  -8.311 -11.561  1.00  0.00    -0.314 NA
ATOM     35  H4  UNL     1      -5.238  -8.367 -10.565  1.00  0.00    +0.122 HD
ENDBRANCH   1  34
BRANCH   7  36
ATOM     36  O2  UNL     1      -7.925  -6.847 -10.820  1.00  0.00    -0.373 OA
ATOM     37  C8  UNL     1      -9.085  -6.287 -11.416  1.00  0.00    +0.194 C 
ENDBRANCH   7  36
TORSDOF 2
ENDMDL
MODEL 2
REMARK VINA RESULT:    -5.931      1.594      2.352
REMARK INTER + INTRA:          -7.044
REMARK INTER:                  -6.626
REMARK INTRA:                  -0.418
REMARK UNBOUND:                -0.419
REMARK  Name = docking/ligands/Staurosporine.pdb
REMARK  5 active torsions:
REMARK  status: ('A' for Active; 'I' for Inactive)
REMARK    1  A    between atoms: C1_1  and  N1_2
REMARK    2  A    between atoms: N1_2  and  C2_3
REMARK    3  A    between atoms: C5_7  and  C6_8
REMARK    4  A    between atoms: C7_9  and  O2_10
REMARK    5  A    between atoms: O2_10  and  C8_11
REMARK                            x       y       z     vdW  Elec       q    Type
REMARK                         _______ _______ _______ _____ _____    ______ ____
ROOT
ATOM      1  C2  UNL     1      -7.661  -5.674 -11.827  1.00  0.00    +0.091 C 
ATOM      2  C3  UNL     1      -6.408  -4.796 -11.857  1.00  0.00    +0.076 C 
ATOM      3  C4  UNL     1      -5.865  -4.420 -10.486  1.00  0.00    +0.224 C 
ATOM      4  O1  UNL     1      -6.845  -3.979  -9.550  1.00  0.00    -0.328 OA
ATOM      5  C5  UNL     1      -8.099  -4.703  -9.451  1.00  0.00    +0.174 C 
ATOM      6  C6  UNL     1      -8.980  -3.633  -8.757  1.00  0.00    +0.069 C 
ATOM      7  C7  UNL     1      -8.689  -5.006 -10.869  1.00  0.00    +0.187 C 
ATOM      8  N2  UNL     1      -7.939  -5.883  -8.569  1.00  0.00    -0.307 N 
ATOM      9  C9  UNL     1      -8.937  -6.539  -7.834  1.00  0.00    +0.053 A 
ATOM     10  C10 UNL     1     -10.339  -6.401  -7.802  1.00  0.00    +0.026 A 
ATOM     11  C11 UNL     1     -11.089  -7.183  -6.916  1.00  0.00    +0.002 A 
ATOM     12  C12 UNL     1     -10.473  -8.096  -6.077  1.00  0.00    +0.001 A 
ATOM     13  C13 UNL     1      -9.089  -8.264  -6.123  1.00  0.00    +0.010 A 
ATOM     14  C14 UNL     1      -8.308  -7.491  -7.012  1.00  0.00    +0.008 A 
ATOM     15  C15 UNL     1      -6.925  -7.482  -7.326  1.00  0.00    +0.015 A 
ATOM     16  C16 UNL     1      -5.786  -8.204  -6.933  1.00  0.00    -0.008 A 
ATOM     17  C17 UNL     1      -4.506  -7.979  -7.524  1.00  0.00    +0.052 A 
ATOM     18  C18 UNL     1      -4.248  -7.039  -8.530  1.00  0.00    +0.022 A 
ATOM     19  C19 UNL     1      -3.156  -6.589  -9.336  1.00  0.00    +0.008 A 
ATOM     20  C20 UNL     1      -1.794  -6.944  -9.441  1.00  0.00    +0.010 A 
ATOM     21  C21 UNL     1      -0.968  -6.296 -10.365  1.00  0.00    +0.001 A 
ATOM     22  C22 UNL     1      -1.474  -5.297 -11.186  1.00  0.00    +0.002 A 
ATOM     23  C23 UNL     1      -2.816  -4.918 -11.108  1.00  0.00    +0.026 A 
ATOM     24  C24 UNL     1      -3.643  -5.575 -10.177  1.00  0.00    +0.052 A 
ATOM     25  N3  UNL     1      -4.986  -5.409  -9.882  1.00  0.00    -0.311 N 
ATOM     26  C25 UNL     1      -5.344  -6.289  -8.917  1.00  0.00    +0.077 A 
ATOM     27  C26 UNL     1      -6.748  -6.511  -8.291  1.00  0.00    +0.077 A 
ATOM     28  C27 UNL     1      -3.567  -8.921  -6.896  1.00  0.00    +0.245 C 
ATOM     29  O3  UNL     1      -2.381  -9.054  -7.120  1.00  0.00    -0.270 OA
ATOM     30  N4  UNL     1      -4.282  -9.657  -5.977  1.00  0.00    -0.307 N 
ATOM     31  C28 UNL     1      -5.672  -9.303  -5.918  1.00  0.00    +0.141 C 
ATOM     32  H24 UNL     1      -3.831 -10.375  -5.425  1.00  0.00    +0.149 HD
ENDROOT
BRANCH   1  34
ATOM     33  C1  UNL     1      -6.349  -7.707 -12.296  1.00  0.00    +0.101 C 
ATOM     34  N1  UNL     1      -7.458  -7.105 -11.576  1.00  0.00    -0.314 NA
ATOM     35  H4  UNL     1      -7.391  -7.336 -10.586  1.00  0.00    +0.122 HD
ENDBRANCH   1  34
BRANCH   7  36
ATOM     36  O2  UNL     1      -9.950  -5.686 -10.780  1.00  0.00    -0.373 OA
ATOM     37  C8  UNL     1     -10.993  -5.123 -11.561  1.00  0.00    +0.194 C 
ENDBRANCH   7  36
TORSDOF 2
ENDMDL
MODEL 3
REMARK VINA RESULT:    -5.814      7.242     11.018
REMARK INTER + INTRA:          -6.913
REMARK INTER:                  -6.510
REMARK INTRA:                  -0.404
REMARK UNBOUND:                -0.419
REMARK  Name = docking/ligands/Staurosporine.pdb
REMARK  5 active torsions:
REMARK  status: ('A' for Active; 'I' for Inactive)
REMARK    1  A    between atoms: C1_1  and  N1_2
REMARK    2  A    between atoms: N1_2  and  C2_3
REMARK    3  A    between atoms: C5_7  and  C6_8
REMARK    4  A    between atoms: C7_9  and  O2_10
REMARK    5  A    between atoms: O2_10  and  C8_11
REMARK                            x       y       z     vdW  Elec       q    Type
REMARK                         _______ _______ _______ _____ _____    ______ ____
ROOT
ATOM      1  C2  UNL     1     -15.008  -3.853  -3.573  1.00  0.00    +0.091 C 
ATOM      2  C3  UNL     1     -14.808  -2.352  -3.798  1.00  0.00    +0.076 C 
ATOM      3  C4  UNL     1     -13.377  -1.946  -4.121  1.00  0.00    +0.224 C 
ATOM      4  O1  UNL     1     -12.382  -2.532  -3.288  1.00  0.00    -0.328 OA
ATOM      5  C5  UNL     1     -12.478  -3.944  -2.963  1.00  0.00    +0.174 C 
ATOM      6  C6  UNL     1     -11.567  -4.000  -1.710  1.00  0.00    +0.069 C 
ATOM      7  C7  UNL     1     -13.938  -4.329  -2.548  1.00  0.00    +0.187 C 
ATOM      8  N2  UNL     1     -11.896  -4.760  -4.055  1.00  0.00    -0.307 N 
ATOM      9  C9  UNL     1     -11.354  -6.049  -3.958  1.00  0.00    +0.053 A 
ATOM     10  C10 UNL     1     -11.315  -6.988  -2.907  1.00  0.00    +0.026 A 
ATOM     11  C11 UNL     1     -10.652  -8.205  -3.094  1.00  0.00    +0.002 A 
ATOM     12  C12 UNL     1     -10.041  -8.504  -4.300  1.00  0.00    +0.001 A 
ATOM     13  C13 UNL     1     -10.100  -7.596  -5.358  1.00  0.00    +0.010 A 
ATOM     14  C14 UNL     1     -10.769  -6.362  -5.198  1.00  0.00    +0.008 A 
ATOM     15  C15 UNL     1     -11.047  -5.291  -6.085  1.00  0.00    +0.015 A 
ATOM     16  C16 UNL     1     -10.815  -5.005  -7.442  1.00  0.00    -0.008 A 
ATOM     17  C17 UNL     1     -11.314  -3.819  -8.061  1.00  0.00    +0.052 A 
ATOM     18  C18 UNL     1     -12.065  -2.835  -7.406  1.00  0.00    +0.022 A 
ATOM     19  C19 UNL     1     -12.723  -1.600  -7.701  1.00  0.00    +0.008 A 
ATOM     20  C20 UNL     1     -12.885  -0.822  -8.867  1.00  0.00    +0.010 A 
ATOM     21  C21 UNL     1     -13.615   0.370  -8.822  1.00  0.00    +0.001 A 
ATOM     22  C22 UNL     1     -14.186   0.803  -7.633  1.00  0.00    +0.002 A 
ATOM     23  C23 UNL     1     -14.045   0.060  -6.459  1.00  0.00    +0.026 A 
ATOM     24  C24 UNL     1     -13.310  -1.140  -6.511  1.00  0.00    +0.052 A 
ATOM     25  N3  UNL     1     -13.008  -2.063  -5.523  1.00  0.00    -0.311 N 
ATOM     26  C25 UNL     1     -12.284  -3.073  -6.061  1.00  0.00    +0.077 A 
ATOM     27  C26 UNL     1     -11.753  -4.353  -5.360  1.00  0.00    +0.077 A 
ATOM     28  C27 UNL     1     -10.909  -3.865  -9.474  1.00  0.00    +0.245 C 
ATOM     29  O3  UNL     1     -11.137  -3.048 -10.342  1.00  0.00    -0.270 OA
ATOM     30  N4  UNL     1     -10.202  -5.032  -9.657  1.00  0.00    -0.307 N 
ATOM     31  C28 UNL     1     -10.086  -5.824  -8.465  1.00  0.00    +0.141 C 
ATOM     32  H24 UNL     1      -9.827  -5.273 -10.565  1.00  0.00    +0.149 HD
ENDROOT
BRANCH   1  34
ATOM     33  C1  UNL     1     -15.924  -4.160  -5.841  1.00  0.00    +0.101 C 
ATOM     34  N1  UNL     1     -15.097  -4.694  -4.772  1.00  0.00    -0.314 NA
ATOM     35  H4  UNL     1     -14.189  -4.966  -5.143  1.00  0.00    +0.122 HD
ENDBRANCH   1  34
BRANCH   7  36
ATOM     36  O2  UNL     1     -14.033  -5.714  -2.186  1.00  0.00    -0.373 OA
ATOM     37  C8  UNL     1     -15.192  -6.062  -1.444  1.00  0.00    +0.194 C 
ENDBRANCH   7  36
TORSDOF 2
ENDMDL
MODEL 4
REMARK VINA RESULT:    -5.547      6.907     10.761
REMARK INTER + INTRA:          -6.614
REMARK INTER:                  -6.195
REMARK INTRA:                  -0.420
REMARK UNBOUND:                -0.419
REMARK  Name = docking/ligands/Staurosporine.pdb
REMARK  5 active torsions:
REMARK  status: ('A' for Active; 'I' for Inactive)
REMARK    1  A    between atoms: C1_1  and  N1_2
REMARK    2  A    between atoms: N1_2  and  C2_3
REMARK    3  A    between atoms: C5_7  and  C6_8
REMARK    4  A    between atoms: C7_9  and  O2_10
REMARK    5  A    between atoms: O2_10  and  C8_11
REMARK                            x       y       z     vdW  Elec       q    Type
REMARK                         _______ _______ _______ _____ _____    ______ ____
ROOT
ATOM      1  C2  UNL     1     -13.475  -6.901  -3.232  1.00  0.00    +0.091 C 
ATOM      2  C3  UNL     1     -13.365  -5.539  -2.542  1.00  0.00    +0.076 C 
ATOM      3  C4  UNL     1     -12.134  -4.732  -2.928  1.00  0.00    +0.224 C 
ATOM      4  O1  UNL     1     -10.911  -5.464  -2.935  1.00  0.00    -0.328 OA
ATOM      5  C5  UNL     1     -10.890  -6.790  -3.525  1.00  0.00    +0.174 C 
ATOM      6  C6  UNL     1      -9.603  -7.359  -2.875  1.00  0.00    +0.069 C 
ATOM      7  C7  UNL     1     -12.117  -7.639  -3.050  1.00  0.00    +0.187 C 
ATOM      8  N2  UNL     1     -10.720  -6.694  -4.994  1.00  0.00    -0.307 N 
ATOM      9  C9  UNL     1     -10.178  -7.659  -5.854  1.00  0.00    +0.053 A 
ATOM     10  C10 UNL     1      -9.778  -8.995  -5.653  1.00  0.00    +0.026 A 
ATOM     11  C11 UNL     1      -9.220  -9.716  -6.713  1.00  0.00    +0.002 A 
ATOM     12  C12 UNL     1      -9.062  -9.137  -7.962  1.00  0.00    +0.001 A 
ATOM     13  C13 UNL     1      -9.483  -7.825  -8.182  1.00  0.00    +0.010 A 
ATOM     14  C14 UNL     1     -10.056  -7.077  -7.129  1.00  0.00    +0.008 A 
ATOM     15  C15 UNL     1     -10.623  -5.779  -7.063  1.00  0.00    +0.015 A 
ATOM     16  C16 UNL     1     -10.873  -4.729  -7.963  1.00  0.00    -0.008 A 
ATOM     17  C17 UNL     1     -11.555  -3.539  -7.567  1.00  0.00    +0.052 A 
ATOM     18  C18 UNL     1     -12.035  -3.288  -6.275  1.00  0.00    +0.022 A 
ATOM     19  C19 UNL     1     -12.754  -2.277  -5.565  1.00  0.00    +0.008 A 
ATOM     20  C20 UNL     1     -13.309  -1.029  -5.917  1.00  0.00    +0.010 A 
ATOM     21  C21 UNL     1     -13.978  -0.261  -4.958  1.00  0.00    +0.001 A 
ATOM     22  C22 UNL     1     -14.105  -0.715  -3.653  1.00  0.00    +0.002 A 
ATOM     23  C23 UNL     1     -13.567  -1.946  -3.268  1.00  0.00    +0.026 A 
ATOM     24  C24 UNL     1     -12.895  -2.714  -4.237  1.00  0.00    +0.052 A 
ATOM     25  N3  UNL     1     -12.271  -3.947  -4.144  1.00  0.00    -0.311 N 
ATOM     26  C25 UNL     1     -11.776  -4.290  -5.358  1.00  0.00    +0.077 A 
ATOM     27  C26 UNL     1     -11.036  -5.596  -5.759  1.00  0.00    +0.077 A 
ATOM     28  C27 UNL     1     -11.662  -2.684  -8.759  1.00  0.00    +0.245 C 
ATOM     29  O3  UNL     1     -12.176  -1.587  -8.848  1.00  0.00    -0.270 OA
ATOM     30  N4  UNL     1     -11.061  -3.358  -9.799  1.00  0.00    -0.307 N 
ATOM     31  C28 UNL     1     -10.541  -4.642  -9.424  1.00  0.00    +0.141 C 
ATOM     32  H24 UNL     1     -11.023  -2.952 -10.725  1.00  0.00    +0.149 HD
ENDROOT
BRANCH   1  34
ATOM     33  C1  UNL     1     -15.111  -6.037  -4.860  1.00  0.00    +0.101 C 
ATOM     34  N1  UNL     1     -13.972  -6.904  -4.612  1.00  0.00    -0.314 NA
ATOM     35  H4  UNL     1     -13.246  -6.722  -5.303  1.00  0.00    +0.122 HD
ENDBRANCH   1  34
BRANCH   7  36
ATOM     36  O2  UNL     1     -12.081  -8.966  -3.597  1.00  0.00    -0.373 OA
ATOM     37  C8  UNL     1     -12.289 -10.008  -2.656  1.00  0.00    +0.194 C 
ENDBRANCH   7  36
TORSDOF 2
ENDMDL
MODEL 5
REMARK VINA RESULT:    -5.540      6.007     10.345
REMARK INTER + INTRA:          -6.607
REMARK INTER:                  -6.205
REMARK INTRA:                  -0.403
REMARK UNBOUND:                -0.419
REMARK  Name = docking/ligands/Staurosporine.pdb
REMARK  5 active torsions:
REMARK  status: ('A' for Active; 'I' for Inactive)
REMARK    1  A    between atoms: C1_1  and  N1_2
REMARK    2  A    between atoms: N1_2  and  C2_3
REMARK    3  A    between atoms: C5_7  and  C6_8
REMARK    4  A    between atoms: C7_9  and  O2_10
REMARK    5  A    between atoms: O2_10  and  C8_11
REMARK                            x       y       z     vdW  Elec       q    Type
REMARK                         _______ _______ _______ _____ _____    ______ ____
ROOT
ATOM      1  C2  UNL     1     -13.083  -3.732  -2.774  1.00  0.00    +0.091 C 
ATOM      2  C3  UNL     1     -13.511  -5.167  -2.460  1.00  0.00    +0.076 C 
ATOM      3  C4  UNL     1     -13.714  -6.049  -3.684  1.00  0.00    +0.224 C 
ATOM      4  O1  UNL     1     -14.462  -5.452  -4.739  1.00  0.00    -0.328 OA
ATOM      5  C5  UNL     1     -14.182  -4.077  -5.109  1.00  0.00    +0.174 C 
ATOM      6  C6  UNL     1     -15.490  -3.724  -5.862  1.00  0.00    +0.069 C 
ATOM      7  C7  UNL     1     -14.062  -3.165  -3.842  1.00  0.00    +0.187 C 
ATOM      8  N2  UNL     1     -13.028  -4.023  -6.038  1.00  0.00    -0.307 N 
ATOM      9  C9  UNL     1     -12.741  -3.027  -6.982  1.00  0.00    +0.053 A 
ATOM     10  C10 UNL     1     -13.323  -1.772  -7.247  1.00  0.00    +0.026 A 
ATOM     11  C11 UNL     1     -12.840  -0.997  -8.307  1.00  0.00    +0.002 A 
ATOM     12  C12 UNL     1     -11.791  -1.443  -9.093  1.00  0.00    +0.001 A 
ATOM     13  C13 UNL     1     -11.185  -2.670  -8.820  1.00  0.00    +0.010 A 
ATOM     14  C14 UNL     1     -11.651  -3.470  -7.753  1.00  0.00    +0.008 A 
ATOM     15  C15 UNL     1     -11.209  -4.701  -7.204  1.00  0.00    +0.015 A 
ATOM     16  C16 UNL     1     -10.165  -5.609  -7.446  1.00  0.00    -0.008 A 
ATOM     17  C17 UNL     1      -9.956  -6.759  -6.627  1.00  0.00    +0.052 A 
ATOM     18  C18 UNL     1     -10.746  -7.104  -5.523  1.00  0.00    +0.022 A 
ATOM     19  C19 UNL     1     -10.808  -8.109  -4.508  1.00  0.00    +0.008 A 
ATOM     20  C20 UNL     1     -10.032  -9.245  -4.194  1.00  0.00    +0.010 A 
ATOM     21  C21 UNL     1     -10.364 -10.043  -3.095  1.00  0.00    +0.001 A 
ATOM     22  C22 UNL     1     -11.459  -9.730  -2.301  1.00  0.00    +0.002 A 
ATOM     23  C23 UNL     1     -12.251  -8.614  -2.582  1.00  0.00    +0.026 A 
ATOM     24  C24 UNL     1     -11.911  -7.814  -3.689  1.00  0.00    +0.052 A 
ATOM     25  N3  UNL     1     -12.504  -6.671  -4.199  1.00  0.00    -0.311 N 
ATOM     26  C25 UNL     1     -11.802  -6.246  -5.276  1.00  0.00    +0.077 A 
ATOM     27  C26 UNL     1     -12.055  -4.987  -6.151  1.00  0.00    +0.077 A 
ATOM     28  C27 UNL     1      -8.773  -7.456  -7.152  1.00  0.00    +0.245 C 
ATOM     29  O3  UNL     1      -8.261  -8.476  -6.736  1.00  0.00    -0.270 OA
ATOM     30  N4  UNL     1      -8.322  -6.735  -8.235  1.00  0.00    -0.307 N 
ATOM     31  C28 UNL     1      -9.105  -5.563  -8.507  1.00  0.00    +0.141 C 
ATOM     32  H24 UNL     1      -7.506  -7.033  -8.753  1.00  0.00    +0.149 HD
ENDROOT
BRANCH   1  34
ATOM     33  C1  UNL     1     -10.727  -4.122  -2.165  1.00  0.00    +0.101 C 
ATOM     34  N1  UNL     1     -11.667  -3.520  -3.095  1.00  0.00    -0.314 NA
ATOM     35  H4  UNL     1     -11.425  -3.785  -4.048  1.00  0.00    +0.122 HD
ENDBRANCH   1  34
BRANCH   7  36
ATOM     36  O2  UNL     1     -13.826  -1.795  -4.201  1.00  0.00    -0.373 OA
ATOM     37  C8  UNL     1     -14.380  -0.838  -3.312  1.00  0.00    +0.194 C 
ENDBRANCH   7  36
TORSDOF 2
ENDMDL
MODEL 6
REMARK VINA RESULT:    -5.448      2.905      5.097
REMARK INTER + INTRA:          -6.504
REMARK INTER:                  -6.085
REMARK INTRA:                  -0.419
REMARK UNBOUND:                -0.419
REMARK  Name = docking/ligands/Staurosporine.pdb
REMARK  5 active torsions:
REMARK  status: ('A' for Active; 'I' for Inactive)
REMARK    1  A    between atoms: C1_1  and  N1_2
REMARK    2  A    between atoms: N1_2  and  C2_3
REMARK    3  A    between atoms: C5_7  and  C6_8
REMARK    4  A    between atoms: C7_9  and  O2_10
REMARK    5  A    between atoms: O2_10  and  C8_11
REMARK                            x       y       z     vdW  Elec       q    Type
REMARK                         _______ _______ _______ _____ _____    ______ ____
ROOT
ATOM      1  C2  UNL     1     -10.870  -5.988 -10.502  1.00  0.00    +0.091 C 
ATOM      2  C3  UNL     1     -10.577  -4.494 -10.658  1.00  0.00    +0.076 C 
ATOM      3  C4  UNL     1      -9.658  -3.915  -9.592  1.00  0.00    +0.224 C 
ATOM      4  O1  UNL     1      -9.970  -4.295  -8.255  1.00  0.00    -0.328 OA
ATOM      5  C5  UNL     1     -10.306  -5.679  -7.978  1.00  0.00    +0.174 C 
ATOM      6  C6  UNL     1     -11.031  -5.519  -6.618  1.00  0.00    +0.069 C 
ATOM      7  C7  UNL     1     -11.321  -6.236  -9.033  1.00  0.00    +0.187 C 
ATOM      8  N2  UNL     1      -9.071  -6.481  -7.807  1.00  0.00    -0.307 N 
ATOM      9  C9  UNL     1      -8.922  -7.671  -7.081  1.00  0.00    +0.053 A 
ATOM     10  C10 UNL     1      -9.850  -8.519  -6.444  1.00  0.00    +0.026 A 
ATOM     11  C11 UNL     1      -9.393  -9.641  -5.745  1.00  0.00    +0.002 A 
ATOM     12  C12 UNL     1      -8.041  -9.935  -5.679  1.00  0.00    +0.001 A 
ATOM     13  C13 UNL     1      -7.116  -9.121  -6.333  1.00  0.00    +0.010 A 
ATOM     14  C14 UNL     1      -7.551  -7.985  -7.051  1.00  0.00    +0.008 A 
ATOM     15  C15 UNL     1      -6.875  -7.029  -7.851  1.00  0.00    +0.015 A 
ATOM     16  C16 UNL     1      -5.554  -6.809  -8.278  1.00  0.00    -0.008 A 
ATOM     17  C17 UNL     1      -5.215  -5.752  -9.176  1.00  0.00    +0.052 A 
ATOM     18  C18 UNL     1      -6.132  -4.840  -9.713  1.00  0.00    +0.022 A 
ATOM     19  C19 UNL     1      -6.153  -3.734 -10.619  1.00  0.00    +0.008 A 
ATOM     20  C20 UNL     1      -5.176  -3.070 -11.391  1.00  0.00    +0.010 A 
ATOM     21  C21 UNL     1      -5.536  -1.992 -12.206  1.00  0.00    +0.001 A 
ATOM     22  C22 UNL     1      -6.854  -1.561 -12.265  1.00  0.00    +0.002 A 
ATOM     23  C23 UNL     1      -7.848  -2.192 -11.514  1.00  0.00    +0.026 A 
ATOM     24  C24 UNL     1      -7.480  -3.277 -10.696  1.00  0.00    +0.052 A 
ATOM     25  N3  UNL     1      -8.236  -4.077  -9.855  1.00  0.00    -0.311 N 
ATOM     26  C25 UNL     1      -7.437  -5.010  -9.286  1.00  0.00    +0.077 A 
ATOM     27  C26 UNL     1      -7.835  -6.151  -8.310  1.00  0.00    +0.077 A 
ATOM     28  C27 UNL     1      -3.768  -5.840  -9.422  1.00  0.00    +0.245 C 
ATOM     29  O3  UNL     1      -3.087  -5.127 -10.130  1.00  0.00    -0.270 OA
ATOM     30  N4  UNL     1      -3.294  -6.907  -8.690  1.00  0.00    -0.307 N 
ATOM     31  C28 UNL     1      -4.315  -7.588  -7.946  1.00  0.00    +0.141 C 
ATOM     32  H24 UNL     1      -2.314  -7.156  -8.714  1.00  0.00    +0.149 HD
ENDROOT
BRANCH   1  34
ATOM     33  C1  UNL     1      -9.237  -6.581 -12.250  1.00  0.00    +0.101 C 
ATOM     34  N1  UNL     1      -9.834  -6.916 -10.968  1.00  0.00    -0.314 NA
ATOM     35  H4  UNL     1      -9.100  -7.082 -10.281  1.00  0.00    +0.122 HD
ENDBRANCH   1  34
BRANCH   7  36
ATOM     36  O2  UNL     1     -11.690  -7.592  -8.743  1.00  0.00    -0.373 OA
ATOM     37  C8  UNL     1     -13.086  -7.851  -8.763  1.00  0.00    +0.194 C 
ENDBRANCH   7  36
TORSDOF 2
ENDMDL
MODEL 7
REMARK VINA RESULT:    -5.348      4.244      7.543
REMARK INTER + INTRA:          -6.392
REMARK INTER:                  -5.974
REMARK INTRA:                  -0.419
REMARK UNBOUND:                -0.419
REMARK  Name = docking/ligands/Staurosporine.pdb
REMARK  5 active torsions:
REMARK  status: ('A' for Active; 'I' for Inactive)
REMARK    1  A    between atoms: C1_1  and  N1_2
REMARK    2  A    between atoms: N1_2  and  C2_3
REMARK    3  A    between atoms: C5_7  and  C6_8
REMARK    4  A    between atoms: C7_9  and  O2_10
REMARK    5  A    between atoms: O2_10  and  C8_11
REMARK                            x       y       z     vdW  Elec       q    Type
REMARK                         _______ _______ _______ _____ _____    ______ ____
ROOT
ATOM      1  C2  UNL     1     -12.289  -5.355  -9.554  1.00  0.00    +0.091 C 
ATOM      2  C3  UNL     1     -12.495  -3.878  -9.212  1.00  0.00    +0.076 C 
ATOM      3  C4  UNL     1     -11.369  -3.254  -8.399  1.00  0.00    +0.224 C 
ATOM      4  O1  UNL     1     -10.919  -4.034  -7.295  1.00  0.00    -0.328 OA
ATOM      5  C5  UNL     1     -10.723  -5.461  -7.476  1.00  0.00    +0.174 C 
ATOM      6  C6  UNL     1     -10.750  -5.931  -6.000  1.00  0.00    +0.069 C 
ATOM      7  C7  UNL     1     -11.930  -6.104  -8.238  1.00  0.00    +0.187 C 
ATOM      8  N2  UNL     1      -9.390  -5.722  -8.070  1.00  0.00    -0.307 N 
ATOM      9  C9  UNL     1      -8.624  -6.891  -7.963  1.00  0.00    +0.053 A 
ATOM     10  C10 UNL     1      -8.900  -8.162  -7.422  1.00  0.00    +0.026 A 
ATOM     11  C11 UNL     1      -7.902  -9.142  -7.418  1.00  0.00    +0.002 A 
ATOM     12  C12 UNL     1      -6.649  -8.883  -7.947  1.00  0.00    +0.001 A 
ATOM     13  C13 UNL     1      -6.373  -7.638  -8.514  1.00  0.00    +0.010 A 
ATOM     14  C14 UNL     1      -7.366  -6.632  -8.536  1.00  0.00    +0.008 A 
ATOM     15  C15 UNL     1      -7.405  -5.326  -9.086  1.00  0.00    +0.015 A 
ATOM     16  C16 UNL     1      -6.538  -4.504  -9.826  1.00  0.00    -0.008 A 
ATOM     17  C17 UNL     1      -6.936  -3.219 -10.302  1.00  0.00    +0.052 A 
ATOM     18  C18 UNL     1      -8.196  -2.645 -10.089  1.00  0.00    +0.022 A 
ATOM     19  C19 UNL     1      -8.915  -1.457 -10.427  1.00  0.00    +0.008 A 
ATOM     20  C20 UNL     1      -8.612  -0.297 -11.171  1.00  0.00    +0.010 A 
ATOM     21  C21 UNL     1      -9.570   0.710 -11.325  1.00  0.00    +0.001 A 
ATOM     22  C22 UNL     1     -10.827   0.584 -10.749  1.00  0.00    +0.002 A 
ATOM     23  C23 UNL     1     -11.161  -0.550 -10.005  1.00  0.00    +0.026 A 
ATOM     24  C24 UNL     1     -10.194  -1.561  -9.854  1.00  0.00    +0.052 A 
ATOM     25  N3  UNL     1     -10.243  -2.771  -9.181  1.00  0.00    -0.311 N 
ATOM     26  C25 UNL     1      -9.062  -3.416  -9.335  1.00  0.00    +0.077 A 
ATOM     27  C26 UNL     1      -8.658  -4.819  -8.803  1.00  0.00    +0.077 A 
ATOM     28  C27 UNL     1      -5.798  -2.663 -11.051  1.00  0.00    +0.245 C 
ATOM     29  O3  UNL     1      -5.729  -1.591 -11.617  1.00  0.00    -0.270 OA
ATOM     30  N4  UNL     1      -4.785  -3.595 -11.004  1.00  0.00    -0.307 N 
ATOM     31  C28 UNL     1      -5.133  -4.782 -10.276  1.00  0.00    +0.141 C 
ATOM     32  H24 UNL     1      -3.900  -3.422 -11.462  1.00  0.00    +0.149 HD
ENDROOT
BRANCH   1  34
ATOM     33  C1  UNL     1     -11.557  -4.812 -11.844  1.00  0.00    +0.101 C 
ATOM     34  N1  UNL     1     -11.388  -5.655 -10.672  1.00  0.00    -0.314 NA
ATOM     35  H4  UNL     1     -10.406  -5.677 -10.405  1.00  0.00    +0.122 HD
ENDBRANCH   1  34
BRANCH   7  36
ATOM     36  O2  UNL     1     -11.763  -7.522  -8.385  1.00  0.00    -0.373 OA
ATOM     37  C8  UNL     1     -12.885  -8.302  -8.001  1.00  0.00    +0.194 C 
ENDBRANCH   7  36
TORSDOF 2
ENDMDL
MODEL 8
REMARK VINA RESULT:    -5.307      3.407      8.214
REMARK INTER + INTRA:          -6.346
REMARK INTER:                  -5.927
REMARK INTRA:                  -0.419
REMARK UNBOUND:                -0.419
REMARK  Name = docking/ligands/Staurosporine.pdb
REMARK  5 active torsions:
REMARK  status: ('A' for Active; 'I' for Inactive)
REMARK    1  A    between atoms: C1_1  and  N1_2
REMARK    2  A    between atoms: N1_2  and  C2_3
REMARK    3  A    between atoms: C5_7  and  C6_8
REMARK    4  A    between atoms: C7_9  and  O2_10
REMARK    5  A    between atoms: O2_10  and  C8_11
REMARK                            x       y       z     vdW  Elec       q    Type
REMARK                         _______ _______ _______ _____ _____    ______ ____
ROOT
ATOM      1  C2  UNL     1      -7.281  -8.221 -10.330  1.00  0.00    +0.091 C 
ATOM      2  C3  UNL     1      -7.675  -8.636  -8.911  1.00  0.00    +0.076 C 
ATOM      3  C4  UNL     1      -7.582  -7.523  -7.877  1.00  0.00    +0.224 C 
ATOM      4  O1  UNL     1      -6.387  -6.749  -7.931  1.00  0.00    -0.328 OA
ATOM      5  C5  UNL     1      -5.882  -6.324  -9.223  1.00  0.00    +0.174 C 
ATOM      6  C6  UNL     1      -4.412  -6.005  -8.852  1.00  0.00    +0.069 C 
ATOM      7  C7  UNL     1      -5.903  -7.504 -10.253  1.00  0.00    +0.187 C 
ATOM      8  N2  UNL     1      -6.577  -5.091  -9.664  1.00  0.00    -0.307 N 
ATOM      9  C9  UNL     1      -6.099  -4.113 -10.547  1.00  0.00    +0.053 A 
ATOM     10  C10 UNL     1      -4.952  -4.048 -11.363  1.00  0.00    +0.026 A 
ATOM     11  C11 UNL     1      -4.711  -2.899 -12.124  1.00  0.00    +0.002 A 
ATOM     12  C12 UNL     1      -5.589  -1.828 -12.093  1.00  0.00    +0.001 A 
ATOM     13  C13 UNL     1      -6.744  -1.894 -11.313  1.00  0.00    +0.010 A 
ATOM     14  C14 UNL     1      -7.014  -3.045 -10.540  1.00  0.00    +0.008 A 
ATOM     15  C15 UNL     1      -8.108  -3.424  -9.721  1.00  0.00    +0.015 A 
ATOM     16  C16 UNL     1      -9.345  -2.868  -9.351  1.00  0.00    -0.008 A 
ATOM     17  C17 UNL     1     -10.279  -3.576  -8.536  1.00  0.00    +0.052 A 
ATOM     18  C18 UNL     1     -10.074  -4.864  -8.024  1.00  0.00    +0.022 A 
ATOM     19  C19 UNL     1     -10.766  -5.840  -7.243  1.00  0.00    +0.008 A 
ATOM     20  C20 UNL     1     -12.033  -5.894  -6.625  1.00  0.00    +0.010 A 
ATOM     21  C21 UNL     1     -12.424  -7.035  -5.917  1.00  0.00    +0.001 A 
ATOM     22  C22 UNL     1     -11.571  -8.126  -5.811  1.00  0.00    +0.002 A 
ATOM     23  C23 UNL     1     -10.309  -8.108  -6.407  1.00  0.00    +0.026 A 
ATOM     24  C24 UNL     1      -9.922  -6.957  -7.119  1.00  0.00    +0.052 A 
ATOM     25  N3  UNL     1      -8.751  -6.661  -7.798  1.00  0.00    -0.311 N 
ATOM     26  C25 UNL     1      -8.851  -5.426  -8.345  1.00  0.00    +0.077 A 
ATOM     27  C26 UNL     1      -7.815  -4.680  -9.229  1.00  0.00    +0.077 A 
ATOM     28  C27 UNL     1     -11.458  -2.711  -8.377  1.00  0.00    +0.245 C 
ATOM     29  O3  UNL     1     -12.477  -2.944  -7.758  1.00  0.00    -0.270 OA
ATOM     30  N4  UNL     1     -11.208  -1.550  -9.073  1.00  0.00    -0.307 N 
ATOM     31  C28 UNL     1      -9.929  -1.537  -9.724  1.00  0.00    +0.141 C 
ATOM     32  H24 UNL     1     -11.894  -0.807  -9.104  1.00  0.00    +0.149 HD
ENDROOT
BRANCH   1  34
ATOM     33  C1  UNL     1      -9.639  -8.015 -11.016  1.00  0.00    +0.101 C 
ATOM     34  N1  UNL     1      -8.288  -7.490 -11.107  1.00  0.00    -0.314 NA
ATOM     35  H4  UNL     1      -8.295  -6.489 -10.919  1.00  0.00    +0.122 HD
ENDBRANCH   1  34
BRANCH   7  36
ATOM     36  O2  UNL     1      -5.366  -7.103 -11.522  1.00  0.00    -0.373 OA
ATOM     37  C8  UNL     1      -4.397  -7.983 -12.069  1.00  0.00    +0.194 C 
ENDBRANCH   7  36
TORSDOF 2
ENDMDL
MODEL 9
REMARK VINA RESULT:    -5.299      2.410      3.672
REMARK INTER + INTRA:          -6.338
REMARK INTER:                  -5.918
REMARK INTRA:                  -0.419
REMARK UNBOUND:                -0.419
REMARK  Name = docking/ligands/Staurosporine.pdb
REMARK  5 active torsions:
REMARK  status: ('A' for Active; 'I' for Inactive)
REMARK    1  A    between atoms: C1_1  and  N1_2
REMARK    2  A    between atoms: N1_2  and  C2_3
REMARK    3  A    between atoms: C5_7  and  C6_8
REMARK    4  A    between atoms: C7_9  and  O2_10
REMARK    5  A    between atoms: O2_10  and  C8_11
REMARK                            x       y       z     vdW  Elec       q    Type
REMARK                         _______ _______ _______ _____ _____    ______ ____
ROOT
ATOM      1  C2  UNL     1      -9.653  -7.034 -10.621  1.00  0.00    +0.091 C 
ATOM      2  C3  UNL     1      -8.935  -5.732 -10.985  1.00  0.00    +0.076 C 
ATOM      3  C4  UNL     1      -8.230  -5.052  -9.820  1.00  0.00    +0.224 C 
ATOM      4  O1  UNL     1      -8.995  -4.962  -8.622  1.00  0.00    -0.328 OA
ATOM      5  C5  UNL     1      -9.759  -6.117  -8.186  1.00  0.00    +0.174 C 
ATOM      6  C6  UNL     1     -10.764  -5.434  -7.224  1.00  0.00    +0.069 C 
ATOM      7  C7  UNL     1     -10.548  -6.754  -9.379  1.00  0.00    +0.187 C 
ATOM      8  N2  UNL     1      -8.887  -7.052  -7.435  1.00  0.00    -0.307 N 
ATOM      9  C9  UNL     1      -9.277  -7.986  -6.465  1.00  0.00    +0.053 A 
ATOM     10  C10 UNL     1     -10.540  -8.421  -6.017  1.00  0.00    +0.026 A 
ATOM     11  C11 UNL     1     -10.620  -9.356  -4.980  1.00  0.00    +0.002 A 
ATOM     12  C12 UNL     1      -9.474  -9.868  -4.394  1.00  0.00    +0.001 A 
ATOM     13  C13 UNL     1      -8.218  -9.469  -4.851  1.00  0.00    +0.010 A 
ATOM     14  C14 UNL     1      -8.109  -8.529  -5.901  1.00  0.00    +0.008 A 
ATOM     15  C15 UNL     1      -7.002  -7.992  -6.606  1.00  0.00    +0.015 A 
ATOM     16  C16 UNL     1      -5.606  -8.159  -6.593  1.00  0.00    -0.008 A 
ATOM     17  C17 UNL     1      -4.756  -7.492  -7.525  1.00  0.00    +0.052 A 
ATOM     18  C18 UNL     1      -5.201  -6.619  -8.526  1.00  0.00    +0.022 A 
ATOM     19  C19 UNL     1      -4.666  -5.840  -9.599  1.00  0.00    +0.008 A 
ATOM     20  C20 UNL     1      -3.370  -5.626 -10.114  1.00  0.00    +0.010 A 
ATOM     21  C21 UNL     1      -3.180  -4.784 -11.214  1.00  0.00    +0.001 A 
ATOM     22  C22 UNL     1      -4.259  -4.149 -11.812  1.00  0.00    +0.002 A 
ATOM     23  C23 UNL     1      -5.556  -4.335 -11.329  1.00  0.00    +0.026 A 
ATOM     24  C24 UNL     1      -5.742  -5.185 -10.222  1.00  0.00    +0.052 A 
ATOM     25  N3  UNL     1      -6.891  -5.548  -9.539  1.00  0.00    -0.311 N 
ATOM     26  C25 UNL     1      -6.568  -6.409  -8.545  1.00  0.00    +0.077 A 
ATOM     27  C26 UNL     1      -7.519  -7.121  -7.544  1.00  0.00    +0.077 A 
ATOM     28  C27 UNL     1      -3.378  -7.918  -7.236  1.00  0.00    +0.245 C 
ATOM     29  O3  UNL     1      -2.358  -7.583  -7.804  1.00  0.00    -0.270 OA
ATOM     30  N4  UNL     1      -3.437  -8.795  -6.177  1.00  0.00    -0.307 N 
ATOM     31  C28 UNL     1      -4.770  -9.026  -5.698  1.00  0.00    +0.141 C 
ATOM     32  H24 UNL     1      -2.595  -9.221  -5.809  1.00  0.00    +0.149 HD
ENDROOT
BRANCH   1  34
ATOM     33  C1  UNL     1      -7.818  -8.403 -11.533  1.00  0.00    +0.101 C 
ATOM     34  N1  UNL     1      -8.821  -8.235 -10.495  1.00  0.00    -0.314 NA
ATOM     35  H4  UNL     1      -8.386  -8.330  -9.579  1.00  0.00    +0.122 HD
ENDBRANCH   1  34
BRANCH   7  36
ATOM     36  O2  UNL     1     -11.338  -7.872  -8.949  1.00  0.00    -0.373 OA
ATOM     37  C8  UNL     1     -12.644  -7.933  -9.501  1.00  0.00    +0.194 C 
ENDBRANCH   7  36
TORSDOF 2
ENDMDL
